 vasp.6.4.0 14Feb23 (build Dec 05 2023 14:15:48) complex                        
  
 executed on             LinuxIFC date 2023.12.09  18:50:20
 running  256 mpi-ranks, with    1 threads/rank, on   32 nodes
 distrk:  each k-point on  256 cores,    1 groups
 distr:  one band on NCORE=  16 cores,   16 groups


--------------------------------------------------------------------------------------------------------


 INCAR:
   SYSTEM = MgO-rocksalt
   ISMEAR = 0
   SIGMA = 0.05
   EDIFF = 1E-6
   ALGO = ALL
   ISTART = 0
   IBRION = -1
   NSW = 0
   ISYM = 3
   LHFCALC = .TRUE.
   GGA = B5
   AEXX = 0.2
   AGGAX = 0.72
   AGGAC = 0.81
   ALDAC = 0.19
   IVDW = 13
   VDW_S8 = 2.0293
   VDW_A1 = 0.4087
   VDW_A2 = 4.5381
   ENCUT = 520
   PREC = Normal
   LASPH = .TRUE.
   LREAL = Auto
   ISPIN = 1
   NELM = 2000
   NELMIN = 8
   NCORE = 16
   LWAVE = .FALSE.
   LCHARG = .FALSE.

 POTCAR:    PAW_PBE Ag 02Apr2005                  
 POTCAR:    PAW_PBE Ag 02Apr2005                  
   SHA256 =  6550cfa3543261e132c169e1b98a529204624d72be14e2da2e0242bcb74a174d Ag/POTCAR             
   COPYR  = (c) Copyright 02Apr2005 Georg Kresse                                                    
   COPYR  = This file is part of the software VASP. Any use, copying, and all other rights are regul
   COPYR  = If you do not have a valid VASP license, you may not use, copy or distribute this file. 
   VRHFIN =Ag : s1 d10                                                                              
   LEXCH  = PE                                                                                      
   EATOM  =  1037.2675 eV,   76.2370 Ry                                                             
                                                                                                    
   TITEL  = PAW_PBE Ag 02Apr2005                                                                    
   LULTRA =        F    use ultrasoft PP ?                                                          
   IUNSCR =        1    unscreen: 0-lin 1-nonlin 2-no                                               
   RPACOR =    2.000    partial core radius                                                         
   POMASS =  107.868; ZVAL   =   11.000    mass and valenz                                          
   RCORE  =    2.500    outmost cutoff radius                                                       
   RWIGS  =    2.840; RWIGS  =    1.503    wigner-seitz radius (au A)                               
   ENMAX  =  249.844; ENMIN  =  187.383 eV                                                          
   ICORE  =        3    local potential                                                             
   LCOR   =        T    correct aug charges                                                         
   LPAW   =        T    paw PP                                                                      
   EAUG   =  412.496                                                                                
   DEXC   =    0.000                                                                                
   RMAX   =    2.560    core radius for proj-oper                                                   
   RAUG   =    1.300    factor for augmentation sphere                                              
   RDEP   =    2.576    radius for radial grids                                                     
   RDEPT  =    2.072    core radius for aug-charge                                                  
                                                                                                    
   Atomic configuration                                                                             
   12 entries                                                                                       
     n  l   j            E        occ.                                                              
     1  0  0.50    -25324.9161   2.0000                                                             
     2  0  0.50     -3728.5341   2.0000                                                             
     2  1  1.50     -3344.0404   6.0000                                                             
     3  0  0.50      -683.5581   2.0000                                                             
     3  1  1.50      -557.3225   6.0000                                                             
     3  2  2.50      -358.3853  10.0000                                                             
     4  0  0.50       -95.0341   2.0000                                                             
     4  1  1.50       -58.5511   6.0000                                                             
     4  2  2.50        -7.4440  10.0000                                                             
     5  0  0.50        -4.4045   1.0000                                                             
     5  1  0.50        -1.3606   0.0000                                                             
     4  3  2.50        -1.3606   0.0000                                                             
   Description                                                                                      
     l       E           TYP  RCUT    TYP  RCUT                                                     
     2     -7.4439781     23  2.400                                                                 
     2     -8.8045607     23  2.400                                                                 
     0     -4.4044681     23  2.400                                                                 
     0      1.9520038     23  2.400                                                                 
     1     -1.3605826     23  2.500                                                                 
     1     27.2116520     23  2.500                                                                 
     3     -4.0817478     23  2.400                                                                 
  local pseudopotential read in
  partial core-charges read in
  partial kinetic energy density read in
  atomic valenz-charges read in
  non local Contribution for L=           2  read in
    real space projection operators read in
  non local Contribution for L=           2  read in
    real space projection operators read in
  non local Contribution for L=           0  read in
    real space projection operators read in
  non local Contribution for L=           0  read in
    real space projection operators read in
  non local Contribution for L=           1  read in
    real space projection operators read in
  non local Contribution for L=           1  read in
    real space projection operators read in
    PAW grid and wavefunctions read in
 
   number of l-projection  operators is LMAX  =           6
   number of lm-projection operators is LMMAX =          18
 
 -----------------------------------------------------------------------------
|                                                                             |
|               ----> ADVICE to this user running VASP <----                  |
|                                                                             |
|     You have a (more or less) 'small supercell' and for smaller cells       |
|     it is recommended to use the reciprocal-space projection scheme!        |
|     The real-space optimization is not efficient for small cells and it     |
|     is also less accurate ...                                               |
|     Therefore, set LREAL=.FALSE. in the INCAR file.                         |
|                                                                             |
 -----------------------------------------------------------------------------

 Optimization of the real space projectors (new method)

 maximal supplied QI-value         = 15.12
 optimisation between [QCUT,QGAM] = [ 11.64, 23.28] = [ 37.95,151.78] Ry 
 Optimized for a Real-space Cutoff    1.40 Angstroem

   l    n(q)    QCUT    max X(q) W(low)/X(q) W(high)/X(q)  e(spline) 
   2      9    11.641    53.897    0.27E-03    0.11E-03    0.28E-06
   2      9    11.641    52.416    0.27E-03    0.11E-03    0.29E-06
   0     10    11.641   122.045    0.70E-04    0.59E-04    0.17E-06
   0     10    11.641    73.629    0.67E-04    0.56E-04    0.16E-06
   1      9    11.641    15.255    0.49E-03    0.24E-03    0.17E-06
   1      9    11.641     9.562    0.40E-03    0.20E-03    0.14E-06
 -----------------------------------------------------------------------------
|                                                                             |
|               ----> ADVICE to this user running VASP <----                  |
|                                                                             |
|     You enforced a specific xc type in the INCAR file but a different       |
|     type was found in the POTCAR file.                                      |
|     I HOPE YOU KNOW WHAT YOU ARE DOING!                                     |
|                                                                             |
 -----------------------------------------------------------------------------

  PAW_PBE Ag 02Apr2005                  :
 energy of atom  1       EATOM=-1037.2675
 kinetic energy error for atom=    0.0047 (will be added to EATOM!!)
 
 
 POSCAR: Ag
  positions in direct lattice
  velocities in cartesian coordinates
 WARNING: Using user supplied parameters
     VDW_S8 = 2.029
     VDW_A1 = 0.409
     VDW_A2 = 4.538
     because the xc functional is not supported. Required parameters not
     defined in the INCAR file will be replaced with PBE defaults ones.

 exchange correlation table for  LEXCH =       12
   RHO(1)=    0.500       N(1)  =     2000
   RHO(2)=  100.500       N(2)  =     4000
 


--------------------------------------------------------------------------------------------------------


 ion  position               nearest neighbor table
   1  0.459  0.344  0.543-   3 2.60   4 2.70
   2  0.532  0.526  0.446-   5 2.60   4 2.63   3 2.74   6 3.04
   3  0.468  0.474  0.555-   1 2.60   6 2.63   2 2.74   4 3.05
   4  0.523  0.396  0.436-   2 2.63   1 2.70   3 3.05
   5  0.541  0.656  0.456-   2 2.60   6 2.71
   6  0.477  0.604  0.564-   3 2.63   5 2.71   2 3.04
 
  LATTYP: Found a simple cubic cell.
 ALAT       =    20.0000000000
  
  Lattice vectors:
  
 A1 = (  20.0000000000,   0.0000000000,   0.0000000000)
 A2 = (   0.0000000000,  20.0000000000,   0.0000000000)
 A3 = (   0.0000000000,   0.0000000000,  20.0000000000)


Analysis of symmetry for initial positions (statically):
=====================================================================
 Subroutine PRICEL returns:
 Original cell was already a primitive cell.
 

 Routine SETGRP: Setting up the symmetry group for a 
 simple cubic supercell.


 Subroutine GETGRP returns: Found  1 space group operations
 (whereof  1 operations were pure point group operations)
 out of a pool of 48 trial point group operations.


The static configuration has the point symmetry C_1 .


Analysis of symmetry for dynamics (positions and initial velocities):
=====================================================================
 Subroutine PRICEL returns:
 Original cell was already a primitive cell.
 

 Routine SETGRP: Setting up the symmetry group for a 
 simple cubic supercell.


 Subroutine GETGRP returns: Found  1 space group operations
 (whereof  1 operations were pure point group operations)
 out of a pool of 48 trial point group operations.


The dynamic configuration has the point symmetry C_1 .


 Subroutine INISYM returns: Found  1 space group operations
 (whereof  1 operations are pure point group operations),
 and found     1 'primitive' translations


----------------------------------------------------------------------------------------

                                     Primitive cell                                     

  volume of cell :    8000.0000

  direct lattice vectors                    reciprocal lattice vectors
    20.000000000  0.000000000  0.000000000     0.050000000  0.000000000  0.000000000
     0.000000000 20.000000000  0.000000000     0.000000000  0.050000000  0.000000000
     0.000000000  0.000000000 20.000000000     0.000000000  0.000000000  0.050000000

  length of vectors
    20.000000000 20.000000000 20.000000000     0.050000000  0.050000000  0.050000000

  position of ions in fractional coordinates (direct lattice)
     0.459156505  0.344440884  0.543437521
     0.531713138  0.526369565  0.445627435
     0.468108492  0.473648908  0.554679367
     0.522675558  0.395690157  0.435604448
     0.540924936  0.655612949  0.456386841
     0.477353056  0.604318885  0.564274097

  ion indices of the primitive-cell ions
   primitive index   ion index
                 1           1
                 2           2
                 3           3
                 4           4
                 5           5
                 6           6

----------------------------------------------------------------------------------------

 
 
 KPOINTS: KPOINTS created by Atomic Simulation Env

Automatic generation of k-mesh.
 Grid dimensions read from file:
 generate k-points for:    1    1    1

 Generating k-lattice:

  Cartesian coordinates                     Fractional coordinates (reciprocal lattice)
     0.050000000  0.000000000  0.000000000     1.000000000  0.000000000  0.000000000
     0.000000000  0.050000000  0.000000000     0.000000000  1.000000000  0.000000000
     0.000000000  0.000000000  0.050000000     0.000000000  0.000000000  1.000000000

  Length of vectors
     0.050000000  0.050000000  0.050000000

  Shift w.r.t. Gamma in fractional coordinates (k-lattice)
     0.000000000  0.000000000  0.000000000

 
 Subroutine IBZKPT returns following result:
 ===========================================
 
 Found      1 irreducible k-points:
 
 Following reciprocal coordinates:
            Coordinates               Weight
  0.000000  0.000000  0.000000      1.000000
 
 Following cartesian coordinates:
            Coordinates               Weight
  0.000000  0.000000  0.000000      1.000000
 
 
 Subroutine IBZKPT_HF returns following result:
 ==============================================
 
 Found      1 k-points in 1st BZ
 the following      1 k-points will be used (e.g. in the exchange kernel)
 Following reciprocal coordinates:   # in IRBZ
  0.000000  0.000000  0.000000    1.00000000   1 t-inv F


--------------------------------------------------------------------------------------------------------




 Dimension of arrays:
   k-points           NKPTS =      1   k-points in BZ     NKDIM =      1   number of bands    NBANDS=     48
   number of dos      NEDOS =    301   number of ions     NIONS =      6
   non local maximal  LDIM  =      6   non local SUM 2l+1 LMDIM =     18
   total plane-waves  NPLWV = ******
   max r-space proj   IRMAX =   2084   max aug-charges    IRDMAX=   8833
   dimension x,y,z NGX =   112 NGY =  112 NGZ =  112
   dimension x,y,z NGXF=   224 NGYF=  224 NGZF=  224
   support grid    NGXF=   224 NGYF=  224 NGZF=  224
   ions per type =               6
   NGX,Y,Z   is equivalent  to a cutoff of   9.31,  9.31,  9.31 a.u.
   NGXF,Y,Z  is equivalent  to a cutoff of  18.62, 18.62, 18.62 a.u.

 SYSTEM =  MgO-rocksalt                            
 POSCAR =  Ag                                      

 Startparameter for this run:
   NWRITE =      2    write-flag & timer
   PREC   = normal    normal or accurate (medium, high low for compatibility)
   ISTART =      0    job   : 0-new  1-cont  2-samecut
   ICHARG =      2    charge: 1-file 2-atom 10-const
   ISPIN  =      1    spin polarized calculation?
   LNONCOLLINEAR =      F non collinear calculations
   LSORBIT =      F    spin-orbit coupling
   INIWAV =      1    electr: 0-lowe 1-rand  2-diag
   LASPH  =      T    aspherical Exc in radial PAW
 Electronic Relaxation 1
   ENCUT  =  520.0 eV  38.22 Ry    6.18 a.u.  37.19 37.19 37.19*2*pi/ulx,y,z
   ENINI  =  520.0     initial cutoff
   ENAUG  =  412.5 eV  augmentation charge cutoff
   NELM   =   2000;   NELMIN=  8; NELMDL= -5     # of ELM steps 
   EDIFF  = 0.1E-05   stopping-criterion for ELM
   LREAL  =      T    real-space projection
   NLSPLINE    = F    spline interpolate recip. space projectors
   LCOMPAT=      F    compatible to vasp.4.4
   GGA_COMPAT  = T    GGA compatible to vasp.4.4-vasp.4.6
   LMAXPAW     = -100 max onsite density
   LMAXMIX     =    2 max onsite mixed and CHGCAR
   VOSKOWN=      0    Vosko Wilk Nusair interpolation
   ROPT   =   -0.00050
 Ionic relaxation
   EDIFFG = 0.1E-04   stopping-criterion for IOM
   NSW    =      0    number of steps for IOM
   NBLOCK =      1;   KBLOCK =      1    inner block; outer block 
   IBRION =     -1    ionic relax: 0-MD 1-quasi-New 2-CG
   NFREE  =      0    steps in history (QN), initial steepest desc. (CG)
   ISIF   =      0    stress and relaxation
   IWAVPR =     10    prediction:  0-non 1-charg 2-wave 3-comb
   ISYM   =      3    0-nonsym 1-usesym 2-fastsym
   LCORR  =      T    Harris-Foulkes like correction to forces

   POTIM  = 0.5000    time-step for ionic-motion
   TEIN   =    0.0    initial temperature
   TEBEG  =    0.0;   TEEND  =   0.0 temperature during run
   SMASS  =  -3.00    Nose mass-parameter (am)
   estimated Nose-frequenzy (Omega)   =  0.10E-29 period in steps = 0.13E+47 mass=  -0.914E-26a.u.
   SCALEE = 1.0000    scale energy and forces
   NPACO  =    256;   APACO  = 10.0  distance and # of slots for P.C.
   PSTRESS=    0.0 pullay stress

  Mass of Ions in am
   POMASS = 107.87
  Ionic Valenz
   ZVAL   =  11.00
  Atomic Wigner-Seitz radii
   RWIGS  =  -1.00
  virtual crystal weights 
   VCA    =   1.00
   NELECT =      66.0000    total number of electrons
   NUPDOWN=      -1.0000    fix difference up-down

 DOS related values:
   EMIN   =  10.00;   EMAX   =-10.00  energy-range for DOS
   EFERMI =   0.00;   METHOD = LEGACY      
   ISMEAR =     0;   SIGMA  =   0.05  broadening in eV -4-tet -1-fermi 0-gaus

 Electronic relaxation 2 (details)
   IALGO  =     58    algorithm
   LDIAG  =      T    sub-space diagonalisation (order eigenvalues)
   LSUBROT=      F    optimize rotation matrix (better conditioning)
   TURBO    =      0    0=normal 1=particle mesh
   IRESTART =      0    0=no restart 2=restart with 2 vectors
   NREBOOT  =      0    no. of reboots
   NMIN     =      0    reboot dimension
   EREF     =   0.00    reference energy to select bands
   IMIX   =      4    mixing-type and parameters
     AMIX     =   0.40;   BMIX     =  1.00
     AMIX_MAG =   1.60;   BMIX_MAG =  1.00
     AMIN     =   0.10
     WC   =   100.;   INIMIX=   1;  MIXPRE=   1;  MAXMIX= -45

 Intra band minimization:
   WEIMIN = 0.0000     energy-eigenvalue tresh-hold
   EBREAK =  0.52E-08  absolut break condition
   DEPER  =   0.30     relativ break condition  

   TIME   =   0.40     timestep for ELM

  volume/ion in A,a.u.               =    1333.33      8997.78
  Fermi-wavevector in a.u.,A,eV,Ry     =   0.330795  0.625113  1.488826  0.109426
  Thomas-Fermi vector in A             =   1.226404
 
 Write flags
   LWAVE        =      F    write WAVECAR
   LDOWNSAMPLE  =      F    k-point downsampling of WAVECAR
   LCHARG       =      F    write CHGCAR
   LVTOT        =      F    write LOCPOT, total local potential
   LVHAR        =      F    write LOCPOT, Hartree potential only
   LELF         =      F    write electronic localiz. function (ELF)
   LORBIT       =      0    0 simple, 1 ext, 2 COOP (PROOUT), +10 PAW based schemes


 Dipole corrections
   LMONO  =      F    monopole corrections only (constant potential shift)
   LDIPOL =      F    correct potential (dipole corrections)
   IDIPOL =      0    1-x, 2-y, 3-z, 4-all directions 
   EPSILON=  1.0000000 bulk dielectric constant

 Exchange correlation treatment:
   GGA     =    B5    GGA type
   LEXCH   =    12    internal setting for exchange type
   LIBXC   =     F    Libxc                    
   VOSKOWN =     0    Vosko Wilk Nusair interpolation
   EXXOEP  =     0    0=HF, 1=EXX-LHF (local Hartree Fock) 2=EXX OEP
   LHFCALC =     T    Hartree Fock is set to
   LSYMGRAD=     F    symmetrize gradient (conserves proper symmetry)
   PRECFOCK=normal    Normal, Fast or Accurate (Low or Medium for compatibility)
   LRHFCALC=     F    long range Hartree Fock
   LRSCOR  =     F    long range correlation only (use DFT for short range part)
   LTHOMAS =     F    Thomas Fermi screening in HF
   LMODELHF=     F    short range full HF, long range fraction AEXX
   FOCKCORR=     1    mode to apply convergence corrections
   LFOCKACE=     T    use Adeptively-Compressed-Exchange operator
   ENCUT4O =  -1.0   cutoff for four orbital integrals eV
   LMAXFOCK=     4    L truncation for augmentation on plane wave grid
   LMAXFOCKAE=  -1    L truncation for all-electron charge restoration on plane wave grid
   NMAXFOCKAE=   1    number of basis functions for all-electron charge restoration
   LFOCKAEDFT=     F  apply the AE augmentation even for DFT
   NKREDX  =     1    reduce k-point grid by
   NKREDY  =     1    reduce k-point grid by
   NKREDZ  =     1    reduce k-point grid by
   SHIFTRED=     F    shift reduced grid of Gamma
   HFKIDENT=     F    idential grid for each k-point
   ODDONLY =     F    use only odd q-grid points
   EVENONLY=     F    use only even q-grid points
   HFALPHA =   -1.0000 decay constant for conv. correction
   MCALPHA =    0.0000 extent of test-charge in conv. correction in multipole expansion
   AEXX    =    0.2000 exact exchange contribution
   HFSCREEN=    0.0000 screening length (either q_TF or 0.3 A-1)
   HFSCREENC=   0.0000 screening length for correlation (either q_TF or 0.3 A-1)
   HFRCUT  =    0.0000 spherical cutoff for potential kernel
   ALDAX   =    0.8000 LDA exchange part
   AGGAX   =    0.7200 GGA exchange part
   ALDAC   =    0.1900 LDA correlation
   AGGAC   =    0.8100 GGA correlation
   ENCUTFOCK=  -1.0 apply spherical cutoff to Coloumb kernel
   NBANDSGWLOW=     1    first orbital included in HF term
   NBLOCK_FOCK=    64    blocking factor in FOCK_ACC

 Linear response parameters
   LEPSILON=     F    determine dielectric tensor
   LRPA    =     F    only Hartree local field effects (RPA)
   LNABLA  =     F    use nabla operator in PAW spheres
   LVEL    =     F    velocity operator in full k-point grid
   CSHIFT  =0.1000    complex shift for real part using Kramers Kronig
   OMEGAMAX=  -1.0    maximum frequency
   DEG_THRESHOLD= 0.2000000E-02 threshold for treating states as degnerate
   RTIME   =   -0.100 relaxation time in fs
  (WPLASMAI=    0.000 imaginary part of plasma frequency in eV, 0.658/RTIME)
   DFIELD  = 0.0000000 0.0000000 0.0000000 field for delta impulse in time
 
  Optional k-point grid parameters
   LKPOINTS_OPT  =     F    use optional k-point grid
   KPOINTS_OPT_MODE=     1    mode for optional k-point grid
 
 Orbital magnetization related:
   ORBITALMAG=     F  switch on orbital magnetization
   LCHIMAG   =     F  perturbation theory with respect to B field
   DQ        =  0.001000  dq finite difference perturbation B field
   LLRAUG    =     F  two centre corrections for induced B field
   LBONE     =     F  B-component reconstruction in AE one-centre
   LVGVCALC  =     T  calculate vGv susceptibility
   LVGVAPPL  =     F  apply vGv susceptibility instead of pGv for G=0

 Random number generation:
   RANDOM_GENERATOR = DEFAULT
   PCG_SEED         = not used


--------------------------------------------------------------------------------------------------------


 Static calculation
 charge density and potential will be updated during run
 non-spin polarized calculation
 Conjugate gradient for all bands (Freysoldt, et al. PRB 79, 241103 (2009))
 preconditioned conjugated gradient                                        
 perform sub-space diagonalisation
    before iterative eigenvector-optimisation
 modified Broyden-mixing scheme, WC =      100.0
 initial mixing is a Kerker type mixing with AMIX =  0.4000 and BMIX =      1.0000
 Hartree-type preconditioning will be used
 using additional bands           15
 real space projection scheme for non local part
 use partial core corrections
 no Harris-corrections to forces 
 use gradient corrections 
 use of overlap-Matrix (Vanderbilt PP)
 Gauss-broadening in eV      SIGMA  =   0.05


--------------------------------------------------------------------------------------------------------


  energy-cutoff  :      520.00
  volume of cell :     8000.00
      direct lattice vectors                 reciprocal lattice vectors
    20.000000000  0.000000000  0.000000000     0.050000000  0.000000000  0.000000000
     0.000000000 20.000000000  0.000000000     0.000000000  0.050000000  0.000000000
     0.000000000  0.000000000 20.000000000     0.000000000  0.000000000  0.050000000

  length of vectors
    20.000000000 20.000000000 20.000000000     0.050000000  0.050000000  0.050000000


 
 k-points in units of 2pi/SCALE and weight: KPOINTS created by Atomic Simulation Env
   0.00000000  0.00000000  0.00000000       1.000
 
 k-points in reciprocal lattice and weights: KPOINTS created by Atomic Simulation Env
   0.00000000  0.00000000  0.00000000       1.000
 
 position of ions in fractional coordinates (direct lattice) 
   0.45915651  0.34444088  0.54343752
   0.53171314  0.52636957  0.44562743
   0.46810849  0.47364891  0.55467937
   0.52267556  0.39569016  0.43560445
   0.54092494  0.65561295  0.45638684
   0.47735306  0.60431888  0.56427410
 
 position of ions in cartesian coordinates  (Angst):
   9.18313010  6.88881767 10.86875042
  10.63426275 10.52739130  8.91254869
   9.36216984  9.47297816 11.09358734
  10.45351117  7.91380313  8.71208896
  10.81849872 13.11225899  9.12773682
   9.54706112 12.08637770 11.28548195
 


--------------------------------------------------------------------------------------------------------


 k-point   1 :   0.0000 0.0000 0.0000  plane waves:  215503

 maximum and minimum number of plane-waves per node :     13480    13461

 maximum number of plane-waves:    215503
 maximum index in each direction: 
   IXMAX=   37   IYMAX=   37   IZMAX=   37
   IXMIN=  -37   IYMIN=  -37   IZMIN=  -37


 real space projection operators:
  total allocation   :       1669.64 KBytes
  max/ min on nodes  :        123.89         89.30


 parallel 3D FFT for wavefunctions:
    minimum data exchange during FFTs selected (reduces bandwidth)
 parallel 3D FFT for charge:
    minimum data exchange during FFTs selected (reduces bandwidth)

 
 Radii for the augmentation spheres in the non-local exchange
 for species   1 augmentation radius   1.406 (default was   1.125)
       energy cutoff for augmentation   2080.0

 real space projection operators:
  total allocation   :       2400.20 KBytes
  max/ min on nodes  :        178.52        128.12

 Maximum index for augmentation-charges in exchange          159
  SETUP_FOCK is finished

 total amount of memory used by VASP MPI-rank0    45987. kBytes
=======================================================================

   base      :      30000. kBytes
   nonlr-proj:        744. kBytes
   fftplans  :       7273. kBytes
   grid      :       5947. kBytes
   one-center:         15. kBytes
   HF        :         64. kBytes
   wavefun   :       1944. kBytes
 
     INWAV:  cpu time      0.0004: real time      0.0005
 Broyden mixing: mesh for mixing (old mesh)
   NGX = 75   NGY = 75   NGZ = 75
  (NGX  =224   NGY  =224   NGZ  =224)
  gives a total of 421875 points

 initial charge density was supplied:
 charge density of overlapping atoms calculated
 number of electron      66.0000000 magnetization 
 keeping initial charge density in first step


--------------------------------------------------------------------------------------------------------


 Maximum index for non-local projection operator          154
 Maximum index for augmentation-charges            0 (set IRDMAX)


--------------------------------------------------------------------------------------------------------


    FEWALD:  cpu time      0.0074: real time      0.0074


--------------------------------------- Ionic step        1  -------------------------------------------




--------------------------------------- Iteration      1(   1)  ---------------------------------------


    POTLOK:  cpu time      0.1838: real time      0.1871
    SETDIJ:  cpu time      0.7845: real time      0.7852
    TRIAL :  cpu time      0.4946: real time      0.5842
    CORREC:  cpu time      0.0096: real time      0.0096
    --------------------------------------------
      LOOP:  cpu time      1.4751: real time      1.5694

 eigenvalue-minimisations  :    96
 total energy-change (2. order) :-0.4822386E+04  (-0.1122853E+04)
 number of electron      66.0000000 magnetization 
 augmentation part       66.0000000 magnetization 

 Free energy of the ion-electron system (eV)
  ---------------------------------------------------
  alpha Z        PSCENC =         3.82760131
  Ewald energy   TEWEN  =      3468.15398447
  -Hartree energ DENC   =     -9412.04390780
  -exchange      EXHF   =         0.00000000
  -V(xc)+E(xc)   XCENC  =       -69.21874268
  PAW double counting   =      6020.77289596   -11088.13097411
  entropy T*S    EENTRO =        -0.01573265
  eigenvalues    EBANDS =        45.56023036
  atomic energy  EATOM  =      6208.70819348
  ---------------------------------------------------
  free energy    TOTEN  =     -4822.38645166 eV

  energy without entropy =    -4822.37071901  energy(sigma->0) =    -4822.37858533
  exchange ACFDT corr.  =         0.00000000  see jH, gK, PRB 81, 115126


--------------------------------------------------------------------------------------------------------




--------------------------------------- Iteration      1(   2)  ---------------------------------------


    TRIAL :  cpu time      0.4364: real time      0.4389
    CORREC:  cpu time      0.0021: real time      0.0021
    --------------------------------------------
      LOOP:  cpu time      0.4471: real time      0.4499

 eigenvalue-minimisations  :   192
 total energy-change (2. order) :-0.4146648E+03  (-0.3665278E+03)
 number of electron      66.0000000 magnetization 
 augmentation part       66.0000000 magnetization 

 Free energy of the ion-electron system (eV)
  ---------------------------------------------------
  alpha Z        PSCENC =         3.82760131
  Ewald energy   TEWEN  =      3468.15398447
  -Hartree energ DENC   =     -9412.04390780
  -exchange      EXHF   =         0.00000000
  -V(xc)+E(xc)   XCENC  =       -69.21874268
  PAW double counting   =      6020.77289596   -11088.13097411
  entropy T*S    EENTRO =        -0.00053314
  eigenvalues    EBANDS =      -369.11979329
  atomic energy  EATOM  =      6208.70819348
  ---------------------------------------------------
  free energy    TOTEN  =     -5237.05127580 eV

  energy without entropy =    -5237.05074266  energy(sigma->0) =    -5237.05100923
  exchange ACFDT corr.  =         0.00000000  see jH, gK, PRB 81, 115126


--------------------------------------------------------------------------------------------------------




--------------------------------------- Iteration      1(   3)  ---------------------------------------


    TRIAL :  cpu time      0.3676: real time      0.3694
    CORREC:  cpu time      0.0007: real time      0.0007
    --------------------------------------------
      LOOP:  cpu time      0.3704: real time      0.3762

 eigenvalue-minimisations  :   160
 total energy-change (2. order) :-0.2760515E+03  (-0.2690339E+03)
 number of electron      66.0000000 magnetization 
 augmentation part       66.0000000 magnetization 

 Free energy of the ion-electron system (eV)
  ---------------------------------------------------
  alpha Z        PSCENC =         3.82760131
  Ewald energy   TEWEN  =      3468.15398447
  -Hartree energ DENC   =     -9412.04390780
  -exchange      EXHF   =         0.00000000
  -V(xc)+E(xc)   XCENC  =       -69.21874268
  PAW double counting   =      6020.77289596   -11088.13097411
  entropy T*S    EENTRO =        -0.00000000
  eigenvalues    EBANDS =      -645.17180584
  atomic energy  EATOM  =      6208.70819348
  ---------------------------------------------------
  free energy    TOTEN  =     -5513.10275521 eV

  energy without entropy =    -5513.10275521  energy(sigma->0) =    -5513.10275521
  exchange ACFDT corr.  =         0.00000000  see jH, gK, PRB 81, 115126


--------------------------------------------------------------------------------------------------------




--------------------------------------- Iteration      1(   4)  ---------------------------------------


    TRIAL :  cpu time      0.2580: real time      0.2572
    CORREC:  cpu time      0.0006: real time      0.0006
    --------------------------------------------
      LOOP:  cpu time      0.2607: real time      0.2639

 eigenvalue-minimisations  :    96
 total energy-change (2. order) :-0.1447902E+02  (-0.1443064E+02)
 number of electron      66.0000000 magnetization 
 augmentation part       66.0000000 magnetization 

 Free energy of the ion-electron system (eV)
  ---------------------------------------------------
  alpha Z        PSCENC =         3.82760131
  Ewald energy   TEWEN  =      3468.15398447
  -Hartree energ DENC   =     -9412.04390780
  -exchange      EXHF   =         0.00000000
  -V(xc)+E(xc)   XCENC  =       -69.21874268
  PAW double counting   =      6020.77289596   -11088.13097411
  entropy T*S    EENTRO =        -0.00000000
  eigenvalues    EBANDS =      -659.65082726
  atomic energy  EATOM  =      6208.70819348
  ---------------------------------------------------
  free energy    TOTEN  =     -5527.58177663 eV

  energy without entropy =    -5527.58177663  energy(sigma->0) =    -5527.58177663
  exchange ACFDT corr.  =         0.00000000  see jH, gK, PRB 81, 115126


--------------------------------------------------------------------------------------------------------




--------------------------------------- Iteration      1(   5)  ---------------------------------------


    POTLOK:  cpu time      0.4186: real time      0.4184
    SETDIJ:  cpu time      2.2989: real time      2.3011
    TRIAL :  cpu time      3.1704: real time      3.1789
    CORREC:  cpu time      0.0008: real time      0.0008
    CHARGE:  cpu time      0.0637: real time      0.0638
    --------------------------------------------
      LOOP:  cpu time      5.9548: real time      5.9693

 eigenvalue-minimisations  :   128
 total energy-change (2. order) : 0.5518362E+04  (-0.4067949E+01)
 number of electron      65.9999955 magnetization 
 augmentation part       32.0735983 magnetization 

 Free energy of the ion-electron system (eV)
  ---------------------------------------------------
  alpha Z        PSCENC =         3.82760131
  Ewald energy   TEWEN  =      3468.15398447
  -Hartree energ DENC   =     -9412.04390780
  -exchange      EXHF   =       134.75009325
  -V(xc)+E(xc)   XCENC  =       -59.62810616
  PAW double counting   =      6009.97796380    -5771.60014152
  entropy T*S    EENTRO =        -0.00000000
  eigenvalues    EBANDS =      -591.36514364
  atomic energy  EATOM  =      6208.70819348
  ---------------------------------------------------
  free energy    TOTEN  =        -9.21946280 eV

  energy without entropy =       -9.21946280  energy(sigma->0) =       -9.21946280
  exchange ACFDT corr.  =        -0.00000000  see jH, gK, PRB 81, 115126


--------------------------------------------------------------------------------------------------------




--------------------------------------- Iteration      1(   6)  ---------------------------------------


    POTLOK:  cpu time      0.4572: real time      0.4700
    SETDIJ:  cpu time      2.3032: real time      2.3052
    TRIAL :  cpu time      3.0818: real time      3.0914
    CORREC:  cpu time      5.6257: real time      5.6297
    CHARGE:  cpu time      0.0296: real time      0.0296
    --------------------------------------------
      LOOP:  cpu time     11.5289: real time     11.5576

 eigenvalue-minimisations  :     0
 total energy-change (2. order) : 0.1435581E+01  (-0.1053251E+01)
 number of electron      65.9999956 magnetization 
 augmentation part       31.8849290 magnetization 

 Free energy of the ion-electron system (eV)
  ---------------------------------------------------
  alpha Z        PSCENC =         3.82760131
  Ewald energy   TEWEN  =      3468.15398447
  -Hartree energ DENC   =     -9514.00899280
  -exchange      EXHF   =       130.12392549
  -V(xc)+E(xc)   XCENC  =       -59.25791650
  PAW double counting   =      6916.44910189    -6684.46733737
  entropy T*S    EENTRO =        -0.00000000
  eigenvalues    EBANDS =      -477.31244159
  atomic energy  EATOM  =      6208.70819348
  ---------------------------------------------------
  free energy    TOTEN  =        -7.78388163 eV

  energy without entropy =       -7.78388163  energy(sigma->0) =       -7.78388163
  exchange ACFDT corr.  =        -0.00000000  see jH, gK, PRB 81, 115126


--------------------------------------------------------------------------------------------------------




--------------------------------------- Iteration      1(   7)  ---------------------------------------


    POTLOK:  cpu time      0.4336: real time      0.4343
    SETDIJ:  cpu time      2.3020: real time      2.3041
    TRIAL :  cpu time      2.8596: real time      2.8609
    CORREC:  cpu time      5.5365: real time      5.5401
    CHARGE:  cpu time      0.0292: real time      0.0292
    --------------------------------------------
      LOOP:  cpu time     11.1636: real time     11.1756

 eigenvalue-minimisations  :     0
 total energy-change (2. order) :-0.1055648E+01  (-0.1854926E+00)
 number of electron      65.9999956 magnetization 
 augmentation part       32.0119642 magnetization 

 Free energy of the ion-electron system (eV)
  ---------------------------------------------------
  alpha Z        PSCENC =         3.82760131
  Ewald energy   TEWEN  =      3468.15398447
  -Hartree energ DENC   =     -9426.58203612
  -exchange      EXHF   =       129.27965452
  -V(xc)+E(xc)   XCENC  =       -60.30174252
  PAW double counting   =      6825.78872488    -6593.21164692
  entropy T*S    EENTRO =        -0.00000000
  eigenvalues    EBANDS =      -564.50226228
  atomic energy  EATOM  =      6208.70819348
  ---------------------------------------------------
  free energy    TOTEN  =        -8.83952918 eV

  energy without entropy =       -8.83952918  energy(sigma->0) =       -8.83952918
  exchange ACFDT corr.  =        -0.00000000  see jH, gK, PRB 81, 115126


--------------------------------------------------------------------------------------------------------




--------------------------------------- Iteration      1(   8)  ---------------------------------------


    POTLOK:  cpu time      0.4333: real time      0.4332
    SETDIJ:  cpu time      2.3002: real time      2.3023
    TRIAL :  cpu time      2.8410: real time      2.8427
    CORREC:  cpu time      5.5303: real time      5.5341
    CHARGE:  cpu time      0.0285: real time      0.0285
    --------------------------------------------
      LOOP:  cpu time     11.1367: real time     11.1477

 eigenvalue-minimisations  :     0
 total energy-change (2. order) :-0.1854588E+00  (-0.8141206E-01)
 number of electron      65.9999956 magnetization 
 augmentation part       31.9613608 magnetization 

 Free energy of the ion-electron system (eV)
  ---------------------------------------------------
  alpha Z        PSCENC =         3.82760131
  Ewald energy   TEWEN  =      3468.15398447
  -Hartree energ DENC   =     -9434.75966807
  -exchange      EXHF   =       129.57537541
  -V(xc)+E(xc)   XCENC  =       -59.92401486
  PAW double counting   =      6792.31146961    -6559.97394318
  entropy T*S    EENTRO =        -0.00000000
  eigenvalues    EBANDS =      -556.94398610
  atomic energy  EATOM  =      6208.70819348
  ---------------------------------------------------
  free energy    TOTEN  =        -9.02498793 eV

  energy without entropy =       -9.02498793  energy(sigma->0) =       -9.02498793
  exchange ACFDT corr.  =        -0.00000000  see jH, gK, PRB 81, 115126


--------------------------------------------------------------------------------------------------------




--------------------------------------- Iteration      1(   9)  ---------------------------------------


    POTLOK:  cpu time      0.4326: real time      0.4333
    SETDIJ:  cpu time      2.3077: real time      2.3091
    TRIAL :  cpu time      2.8332: real time      2.8354
    CORREC:  cpu time      5.5081: real time      5.5130
    CHARGE:  cpu time      0.0295: real time      0.0295
    --------------------------------------------
      LOOP:  cpu time     11.1134: real time     11.1267

 eigenvalue-minimisations  :     0
 total energy-change (2. order) :-0.8081241E-01  (-0.2144164E-01)
 number of electron      65.9999956 magnetization 
 augmentation part       31.9567529 magnetization 

 Free energy of the ion-electron system (eV)
  ---------------------------------------------------
  alpha Z        PSCENC =         3.82760131
  Ewald energy   TEWEN  =      3468.15398447
  -Hartree energ DENC   =     -9426.57677466
  -exchange      EXHF   =       129.43107768
  -V(xc)+E(xc)   XCENC  =       -60.07747459
  PAW double counting   =      6761.74158222    -6529.41062631
  entropy T*S    EENTRO =        -0.00000000
  eigenvalues    EBANDS =      -564.90336393
  atomic energy  EATOM  =      6208.70819348
  ---------------------------------------------------
  free energy    TOTEN  =        -9.10580034 eV

  energy without entropy =       -9.10580034  energy(sigma->0) =       -9.10580034
  exchange ACFDT corr.  =        -0.00000000  see jH, gK, PRB 81, 115126


--------------------------------------------------------------------------------------------------------




--------------------------------------- Iteration      1(  10)  ---------------------------------------


    POTLOK:  cpu time      0.4289: real time      0.4288
    SETDIJ:  cpu time      2.3006: real time      2.3026
    TRIAL :  cpu time      2.8089: real time      2.8110
    CORREC:  cpu time      5.5272: real time      5.5314
    CHARGE:  cpu time      0.0290: real time      0.0290
    --------------------------------------------
      LOOP:  cpu time     11.0971: real time     11.1097

 eigenvalue-minimisations  :     0
 total energy-change (2. order) :-0.2148652E-01  (-0.4465664E-02)
 number of electron      65.9999956 magnetization 
 augmentation part       31.9794943 magnetization 

 Free energy of the ion-electron system (eV)
  ---------------------------------------------------
  alpha Z        PSCENC =         3.82760131
  Ewald energy   TEWEN  =      3468.15398447
  -Hartree energ DENC   =     -9422.19016550
  -exchange      EXHF   =       129.39155366
  -V(xc)+E(xc)   XCENC  =       -60.13433295
  PAW double counting   =      6756.23971581    -6523.79045424
  entropy T*S    EENTRO =        -0.00000000
  eigenvalues    EBANDS =      -569.33338290
  atomic energy  EATOM  =      6208.70819348
  ---------------------------------------------------
  free energy    TOTEN  =        -9.12728686 eV

  energy without entropy =       -9.12728686  energy(sigma->0) =       -9.12728686
  exchange ACFDT corr.  =        -0.00000000  see jH, gK, PRB 81, 115126


--------------------------------------------------------------------------------------------------------




--------------------------------------- Iteration      1(  11)  ---------------------------------------


    POTLOK:  cpu time      0.4175: real time      0.4174
    SETDIJ:  cpu time      2.3006: real time      2.3027
    TRIAL :  cpu time      2.8307: real time      2.8329
    CORREC:  cpu time      5.5055: real time      5.5098
    CHARGE:  cpu time      0.0288: real time      0.0288
    --------------------------------------------
      LOOP:  cpu time     11.0858: real time     11.0979

 eigenvalue-minimisations  :     0
 total energy-change (2. order) :-0.4464467E-02  (-0.1408018E-02)
 number of electron      65.9999956 magnetization 
 augmentation part       31.9713395 magnetization 

 Free energy of the ion-electron system (eV)
  ---------------------------------------------------
  alpha Z        PSCENC =         3.82760131
  Ewald energy   TEWEN  =      3468.15398447
  -Hartree energ DENC   =     -9424.25560580
  -exchange      EXHF   =       129.44876899
  -V(xc)+E(xc)   XCENC  =       -60.06838083
  PAW double counting   =      6757.57827570    -6525.09632226
  entropy T*S    EENTRO =        -0.00000000
  eigenvalues    EBANDS =      -567.42826638
  atomic energy  EATOM  =      6208.70819348
  ---------------------------------------------------
  free energy    TOTEN  =        -9.13175133 eV

  energy without entropy =       -9.13175133  energy(sigma->0) =       -9.13175133
  exchange ACFDT corr.  =        -0.00000000  see jH, gK, PRB 81, 115126


--------------------------------------------------------------------------------------------------------




--------------------------------------- Iteration      1(  12)  ---------------------------------------


    POTLOK:  cpu time      0.4136: real time      0.4142
    SETDIJ:  cpu time      2.3013: real time      2.3027
    TRIAL :  cpu time      2.8424: real time      2.8453
    CORREC:  cpu time      5.5237: real time      5.5277
    CHARGE:  cpu time      0.0294: real time      0.0294
    --------------------------------------------
      LOOP:  cpu time     11.1168: real time     11.1259

 eigenvalue-minimisations  :     0
 total energy-change (2. order) :-0.1408582E-02  (-0.3977324E-03)
 number of electron      65.9999956 magnetization 
 augmentation part       31.9715251 magnetization 

 Free energy of the ion-electron system (eV)
  ---------------------------------------------------
  alpha Z        PSCENC =         3.82760131
  Ewald energy   TEWEN  =      3468.15398447
  -Hartree energ DENC   =     -9423.07411381
  -exchange      EXHF   =       129.42472604
  -V(xc)+E(xc)   XCENC  =       -60.09916667
  PAW double counting   =      6754.35749279    -6521.84485780
  entropy T*S    EENTRO =        -0.00000000
  eigenvalues    EBANDS =      -568.58701972
  atomic energy  EATOM  =      6208.70819348
  ---------------------------------------------------
  free energy    TOTEN  =        -9.13315991 eV

  energy without entropy =       -9.13315991  energy(sigma->0) =       -9.13315991
  exchange ACFDT corr.  =        -0.00000000  see jH, gK, PRB 81, 115126


--------------------------------------------------------------------------------------------------------




--------------------------------------- Iteration      1(  13)  ---------------------------------------


    POTLOK:  cpu time      0.4157: real time      0.4157
    SETDIJ:  cpu time      2.3003: real time      2.3024
    TRIAL :  cpu time      2.8445: real time      2.8466
    CORREC:  cpu time      5.5068: real time      5.5099
    CHARGE:  cpu time      0.0286: real time      0.0286
    --------------------------------------------
      LOOP:  cpu time     11.0984: real time     11.1100

 eigenvalue-minimisations  :     0
 total energy-change (2. order) :-0.3989786E-03  (-0.1104901E-03)
 number of electron      65.9999956 magnetization 
 augmentation part       31.9718579 magnetization 

 Free energy of the ion-electron system (eV)
  ---------------------------------------------------
  alpha Z        PSCENC =         3.82760131
  Ewald energy   TEWEN  =      3468.15398447
  -Hartree energ DENC   =     -9423.34779165
  -exchange      EXHF   =       129.42729980
  -V(xc)+E(xc)   XCENC  =       -60.09508643
  PAW double counting   =      6751.88536627    -6519.37827721
  entropy T*S    EENTRO =        -0.00000000
  eigenvalues    EBANDS =      -568.31484892
  atomic energy  EATOM  =      6208.70819348
  ---------------------------------------------------
  free energy    TOTEN  =        -9.13355889 eV

  energy without entropy =       -9.13355889  energy(sigma->0) =       -9.13355889
  exchange ACFDT corr.  =        -0.00000000  see jH, gK, PRB 81, 115126


--------------------------------------------------------------------------------------------------------




--------------------------------------- Iteration      1(  14)  ---------------------------------------


    POTLOK:  cpu time      0.4164: real time      0.4172
    SETDIJ:  cpu time      2.3087: real time      2.3098
    TRIAL :  cpu time      2.8244: real time      2.8258
    CORREC:  cpu time      5.5070: real time      5.5107
    CHARGE:  cpu time      0.0293: real time      0.0293
    --------------------------------------------
      LOOP:  cpu time     11.0894: real time     11.1003

 eigenvalue-minimisations  :     0
 total energy-change (2. order) :-0.1122303E-03  (-0.2876200E-04)
 number of electron      65.9999956 magnetization 
 augmentation part       31.9714487 magnetization 

 Free energy of the ion-electron system (eV)
  ---------------------------------------------------
  alpha Z        PSCENC =         3.82760131
  Ewald energy   TEWEN  =      3468.15398447
  -Hartree energ DENC   =     -9423.32969269
  -exchange      EXHF   =       129.42800865
  -V(xc)+E(xc)   XCENC  =       -60.09392754
  PAW double counting   =      6750.75672834    -6518.25443258
  entropy T*S    EENTRO =        -0.00000000
  eigenvalues    EBANDS =      -568.33013456
  atomic energy  EATOM  =      6208.70819348
  ---------------------------------------------------
  free energy    TOTEN  =        -9.13367112 eV

  energy without entropy =       -9.13367112  energy(sigma->0) =       -9.13367112
  exchange ACFDT corr.  =        -0.00000000  see jH, gK, PRB 81, 115126


--------------------------------------------------------------------------------------------------------




--------------------------------------- Iteration      1(  15)  ---------------------------------------


    POTLOK:  cpu time      0.4171: real time      0.4178
    SETDIJ:  cpu time      2.3028: real time      2.3040
    TRIAL :  cpu time      2.8271: real time      2.8295
    CORREC:  cpu time      5.5019: real time      5.5053
    CHARGE:  cpu time      0.0285: real time      0.0286
    --------------------------------------------
      LOOP:  cpu time     11.0809: real time     11.0919

 eigenvalue-minimisations  :     0
 total energy-change (2. order) :-0.2867670E-04  (-0.1290649E-04)
 number of electron      65.9999956 magnetization 
 augmentation part       31.9715190 magnetization 

 Free energy of the ion-electron system (eV)
  ---------------------------------------------------
  alpha Z        PSCENC =         3.82760131
  Ewald energy   TEWEN  =      3468.15398447
  -Hartree energ DENC   =     -9423.28094049
  -exchange      EXHF   =       129.42666960
  -V(xc)+E(xc)   XCENC  =       -60.09527949
  PAW double counting   =      6750.51273283    -6518.01061285
  entropy T*S    EENTRO =        -0.00000000
  eigenvalues    EBANDS =      -568.37604867
  atomic energy  EATOM  =      6208.70819348
  ---------------------------------------------------
  free energy    TOTEN  =        -9.13369980 eV

  energy without entropy =       -9.13369980  energy(sigma->0) =       -9.13369980
  exchange ACFDT corr.  =        -0.00000000  see jH, gK, PRB 81, 115126


--------------------------------------------------------------------------------------------------------




--------------------------------------- Iteration      1(  16)  ---------------------------------------


    POTLOK:  cpu time      0.4193: real time      0.4191
    SETDIJ:  cpu time      2.3034: real time      2.3054
    TRIAL :  cpu time      2.8356: real time      2.8372
    CORREC:  cpu time      5.5118: real time      5.5155
    CHARGE:  cpu time      0.0283: real time      0.0283
    --------------------------------------------
      LOOP:  cpu time     11.1008: real time     11.1127

 eigenvalue-minimisations  :     0
 total energy-change (2. order) :-0.1385663E-04  (-0.2633091E-05)
 number of electron      65.9999956 magnetization 
 augmentation part       31.9715946 magnetization 

 Free energy of the ion-electron system (eV)
  ---------------------------------------------------
  alpha Z        PSCENC =         3.82760131
  Ewald energy   TEWEN  =      3468.15398447
  -Hartree energ DENC   =     -9423.28659744
  -exchange      EXHF   =       129.42671666
  -V(xc)+E(xc)   XCENC  =       -60.09541549
  PAW double counting   =      6750.54900221    -6518.04609359
  entropy T*S    EENTRO =        -0.00000000
  eigenvalues    EBANDS =      -568.37110526
  atomic energy  EATOM  =      6208.70819348
  ---------------------------------------------------
  free energy    TOTEN  =        -9.13371365 eV

  energy without entropy =       -9.13371365  energy(sigma->0) =       -9.13371365
  exchange ACFDT corr.  =        -0.00000000  see jH, gK, PRB 81, 115126


--------------------------------------------------------------------------------------------------------




--------------------------------------- Iteration      1(  17)  ---------------------------------------


    POTLOK:  cpu time      0.4199: real time      0.4206
    SETDIJ:  cpu time      2.2999: real time      2.3013
    TRIAL :  cpu time      2.8367: real time      2.8391
    CORREC:  cpu time      5.5015: real time      5.5056
    CHARGE:  cpu time      0.0286: real time      0.0286
    --------------------------------------------
      LOOP:  cpu time     11.0893: real time     11.1023

 eigenvalue-minimisations  :     0
 total energy-change (2. order) : 0.8519755E-06  (-0.2572772E-05)
 number of electron      65.9999956 magnetization 
 augmentation part       31.9716585 magnetization 

 Free energy of the ion-electron system (eV)
  ---------------------------------------------------
  alpha Z        PSCENC =         3.82760131
  Ewald energy   TEWEN  =      3468.15398447
  -Hartree energ DENC   =     -9423.28969775
  -exchange      EXHF   =       129.42686729
  -V(xc)+E(xc)   XCENC  =       -60.09521167
  PAW double counting   =      6750.57568669    -6518.07245372
  entropy T*S    EENTRO =        -0.00000000
  eigenvalues    EBANDS =      -568.36868290
  atomic energy  EATOM  =      6208.70819348
  ---------------------------------------------------
  free energy    TOTEN  =        -9.13371280 eV

  energy without entropy =       -9.13371280  energy(sigma->0) =       -9.13371280
  exchange ACFDT corr.  =        -0.00000000  see jH, gK, PRB 81, 115126


--------------------------------------------------------------------------------------------------------




--------------------------------------- Iteration      1(  18)  ---------------------------------------


    POTLOK:  cpu time      0.4195: real time      0.4202
    SETDIJ:  cpu time      2.3015: real time      2.3028
    TRIAL :  cpu time      2.8164: real time      2.8192
    CORREC:  cpu time      5.5268: real time      5.5307
    CHARGE:  cpu time      0.0284: real time      0.0284
    --------------------------------------------
      LOOP:  cpu time     11.0949: real time     11.1084

 eigenvalue-minimisations  :     0
 total energy-change (2. order) :-0.1693053E-05  (-0.9112312E-06)
 number of electron      65.9999956 magnetization 
 augmentation part       31.9716736 magnetization 

 Free energy of the ion-electron system (eV)
  ---------------------------------------------------
  alpha Z        PSCENC =         3.82760131
  Ewald energy   TEWEN  =      3468.15398447
  -Hartree energ DENC   =     -9423.28716284
  -exchange      EXHF   =       129.42698104
  -V(xc)+E(xc)   XCENC  =       -60.09497629
  PAW double counting   =      6750.59266313    -6518.08912899
  entropy T*S    EENTRO =        -0.00000000
  eigenvalues    EBANDS =      -568.37186981
  atomic energy  EATOM  =      6208.70819348
  ---------------------------------------------------
  free energy    TOTEN  =        -9.13371449 eV

  energy without entropy =       -9.13371449  energy(sigma->0) =       -9.13371449
  exchange ACFDT corr.  =        -0.00000000  see jH, gK, PRB 81, 115126


--------------------------------------------------------------------------------------------------------




--------------------------------------- Iteration      1(  19)  ---------------------------------------


    POTLOK:  cpu time      0.4190: real time      0.4189
    SETDIJ:  cpu time      2.3016: real time      2.3037
    TRIAL :  cpu time      2.8199: real time      2.8217
    CORREC:  cpu time      5.5361: real time      5.5403
    EDDIAG:  cpu time      2.7736: real time      2.7739
    CHARGE:  cpu time      0.0351: real time      0.0351
    --------------------------------------------
      LOOP:  cpu time     13.8878: real time     13.9005

 eigenvalue-minimisations  :     0
 total energy-change (2. order) :-0.3846062E-06  (-0.7628680E-06)
 number of electron      65.9999956 magnetization 
 augmentation part       31.9716576 magnetization 

 Free energy of the ion-electron system (eV)
  ---------------------------------------------------
  alpha Z        PSCENC =         3.82760131
  Ewald energy   TEWEN  =      3468.15398447
  -Hartree energ DENC   =     -9423.28121814
  -exchange      EXHF   =       129.42691507
  -V(xc)+E(xc)   XCENC  =       -60.09503551
  PAW double counting   =      6750.59183073    -6518.08811626
  entropy T*S    EENTRO =        -0.00000000
  eigenvalues    EBANDS =      -568.37793452
  atomic energy  EATOM  =      6208.70819348
  ---------------------------------------------------
  free energy    TOTEN  =        -9.13371488 eV

  energy without entropy =       -9.13371488  energy(sigma->0) =       -9.13371488
  exchange ACFDT corr.  =        -0.00000000  see jH, gK, PRB 81, 115126


--------------------------------------------------------------------------------------------------------


  average scaling for gradient   1.2143


 average (electrostatic) potential at core
  the test charge radii are     1.1249
  (the norm of the test charge is              1.0000)
       1 -77.2904       2 -76.8773       3 -76.8729       4 -76.9026       5 -77.2858
       6 -76.9021
 
 
 
 E-fermi :  -4.0379     XC(G=0):  -0.3148     alpha+bet : -0.1722

 Fermi energy:        -4.0379167980

 k-point     1 :       0.0000    0.0000    0.0000
  band No.  band energies     occupation 
      1     -10.2996      2.00000
      2     -10.1507      2.00000
      3     -10.0035      2.00000
      4      -9.9279      2.00000
      5      -9.6945      2.00000
      6      -9.5973      2.00000
      7      -9.5629      2.00000
      8      -9.5499      2.00000
      9      -9.4466      2.00000
     10      -9.3218      2.00000
     11      -9.2948      2.00000
     12      -9.1176      2.00000
     13      -9.0774      2.00000
     14      -8.9908      2.00000
     15      -8.8857      2.00000
     16      -8.7525      2.00000
     17      -8.6911      2.00000
     18      -8.4547      2.00000
     19      -8.4380      2.00000
     20      -8.4359      2.00000
     21      -8.4058      2.00000
     22      -8.3765      2.00000
     23      -8.2211      2.00000
     24      -8.2093      2.00000
     25      -8.2034      2.00000
     26      -8.0929      2.00000
     27      -8.0794      2.00000
     28      -7.9429      2.00000
     29      -7.9121      2.00000
     30      -7.6250      2.00000
     31      -7.1688      2.00000
     32      -5.9791      2.00000
     33      -4.2875      2.00000
     34      -3.2956      0.00000
     35      -2.2525      0.00000
     36      -1.4393      0.00000
     37      -1.2792      0.00000
     38      -0.9053      0.00000
     39      -0.4895      0.00000
     40      -0.4219      0.00000
     41       0.1218      0.00000
     42       0.2362      0.00000
     43       0.2830      0.00000
     44       0.3069      0.00000
     45       0.4926      0.00000
     46       0.5007      0.00000
     47       0.5562      0.00000
     48       0.6139      0.00000


--------------------------------------------------------------------------------------------------------


 soft charge-density along one line, spin component           1
         0         1         2         3         4         5         6         7         8         9
 total charge-density along one line
 
 pseudopotential strength for first ion, spin component:           1
 -9.159   0.006   0.005   0.002   0.001  -9.201   0.006   0.005
  0.006  -9.166   0.003  -0.006   0.001   0.006  -9.208   0.003
  0.005   0.003  -9.154   0.006  -0.023   0.005   0.003  -9.196
  0.002  -0.006   0.006  -9.140   0.007   0.002  -0.006   0.006
  0.001   0.001  -0.023   0.007  -9.167   0.001   0.001  -0.022
 -9.201   0.006   0.005   0.002   0.001  -9.216   0.005   0.005
  0.006  -9.208   0.003  -0.006   0.001   0.005  -9.223   0.003
  0.005   0.003  -9.196   0.006  -0.022   0.005   0.003  -9.211
  0.002  -0.006   0.006  -9.182   0.007   0.002  -0.006   0.006
  0.001   0.001  -0.022   0.007  -9.209   0.001   0.001  -0.021
  0.004  -0.002  -0.002  -0.005  -0.009   0.003  -0.002  -0.002
  0.006  -0.003  -0.003  -0.009  -0.015   0.006  -0.003  -0.003
 -0.008   0.009   0.020  -0.000   0.033  -0.008   0.008   0.019
 -0.000  -0.034   0.010  -0.008   0.000  -0.000  -0.033   0.010
 -0.035  -0.000   0.005   0.009  -0.009  -0.033  -0.000   0.005
 -0.010   0.010   0.024  -0.001   0.041  -0.009   0.009   0.023
 -0.001  -0.041   0.012  -0.010   0.000  -0.001  -0.040   0.012
 -0.042  -0.001   0.006   0.010  -0.011  -0.040  -0.001   0.006
 total augmentation occupancy for first ion, spin component:           1
  2.307  -0.109   0.003  -0.091  -0.035  -0.328   0.123   0.007   0.106   0.040  -0.321   0.091  -0.038   0.043  -0.047  -0.001
 -0.109   2.419  -0.070   0.132   0.012   0.123  -0.463   0.103  -0.162   0.006   0.193  -0.062   0.023  -0.094   0.041   0.004
  0.003  -0.070   2.251  -0.038   0.100   0.007   0.103  -0.319   0.084  -0.194   0.132  -0.036   0.039   0.047  -0.014   0.006
 -0.091   0.132  -0.038   2.270   0.028   0.106  -0.162   0.084  -0.289   0.007   0.482  -0.127   0.037  -0.071   0.046  -0.003
 -0.035   0.012   0.100   0.028   2.385   0.040   0.006  -0.194   0.008  -0.492   0.794  -0.208   0.110   0.002   0.003   0.008
 -0.328   0.123   0.007   0.106   0.040   0.350  -0.135  -0.016  -0.119  -0.045   0.282  -0.080   0.046  -0.041   0.069  -0.004
  0.123  -0.463   0.103  -0.162   0.006  -0.135   0.506  -0.132   0.189  -0.022  -0.170   0.057  -0.026   0.115  -0.040   0.002
  0.007   0.103  -0.319   0.084  -0.194  -0.016  -0.132   0.381  -0.123   0.278  -0.108   0.025  -0.062  -0.065   0.013   0.006
  0.106  -0.162   0.084  -0.289   0.008  -0.119   0.189  -0.123   0.308  -0.038  -0.431   0.117  -0.036   0.083  -0.057   0.003
  0.040   0.006  -0.194   0.007  -0.492  -0.045  -0.022   0.278  -0.038   0.591  -0.694   0.178  -0.150  -0.009   0.006   0.013
 -0.321   0.193   0.132   0.482   0.794   0.282  -0.170  -0.108  -0.431  -0.694   2.791  -0.658   0.302  -0.112   0.095  -0.022
  0.091  -0.062  -0.036  -0.127  -0.208  -0.080   0.057   0.025   0.117   0.178  -0.658   0.159  -0.076   0.033  -0.026   0.006
 -0.038   0.023   0.039   0.037   0.110   0.046  -0.026  -0.062  -0.036  -0.150   0.302  -0.076   0.050  -0.009   0.010  -0.004
  0.043  -0.094   0.047  -0.071   0.002  -0.041   0.115  -0.065   0.083  -0.009  -0.112   0.033  -0.009   0.042  -0.019   0.001
 -0.047   0.041  -0.014   0.046   0.003   0.069  -0.040   0.013  -0.057   0.006   0.095  -0.026   0.010  -0.019   0.020  -0.001
 -0.001   0.004   0.006  -0.003   0.008  -0.004   0.002   0.006   0.003   0.013  -0.022   0.006  -0.004   0.001  -0.001   0.001
 -0.003  -0.015   0.002   0.000  -0.000   0.003  -0.008   0.005  -0.006   0.001   0.009  -0.002   0.001  -0.003   0.001  -0.000
 -0.017  -0.003   0.004   0.002  -0.006  -0.005   0.003  -0.001   0.004  -0.000  -0.007   0.002  -0.001   0.001  -0.002   0.000


------------------------ aborting loop because EDIFF is reached ----------------------------------------


    FORLOC:  cpu time      0.0146: real time      0.0145
    FORHF :  cpu time      1.6201: real time      1.6217
    FORNL :  cpu time      0.0540: real time      0.0541
    FORCOR:  cpu time      2.7213: real time      2.7233
    OFIELD:  cpu time      0.0004: real time      0.0005
    FORVDW:  cpu time      0.0167: real time      0.0396

 VOLUME and BASIS-vectors are now :
 -----------------------------------------------------------------------------
  energy-cutoff  :      520.00
  volume of cell :     8000.00
      direct lattice vectors                 reciprocal lattice vectors
    20.000000000  0.000000000  0.000000000     0.050000000  0.000000000  0.000000000
     0.000000000 20.000000000  0.000000000     0.000000000  0.050000000  0.000000000
     0.000000000  0.000000000 20.000000000     0.000000000  0.000000000  0.050000000

  length of vectors
    20.000000000 20.000000000 20.000000000     0.050000000  0.050000000  0.050000000


 FORCES acting on ions:
    Electron-Ion                     Ewald-Force                    Non-Local-Force
 -----------------------------------------------------------------------------------------------
   0.172E+03 0.509E+03 -.211E+03   -.170E+03 -.503E+03 0.209E+03   -.185E+01 -.658E+01 0.202E+01
   -.201E+03 -.601E+02 0.369E+03   0.202E+03 0.604E+02 -.370E+03   -.286E+00 -.312E+00 0.410E+00
   0.202E+03 0.607E+02 -.370E+03   -.202E+03 -.610E+02 0.371E+03   0.276E+00 0.262E+00 -.398E+00
   -.169E+03 0.370E+03 0.393E+03   0.168E+03 -.366E+03 -.390E+03   0.118E+01 -.366E+01 -.296E+01
   -.172E+03 -.508E+03 0.212E+03   0.171E+03 0.502E+03 -.210E+03   0.184E+01 0.657E+01 -.201E+01
   0.168E+03 -.371E+03 -.392E+03   -.167E+03 0.367E+03 0.390E+03   -.117E+01 0.371E+01 0.295E+01
 -----------------------------------------------------------------------------------------------
   0.879E-02 0.871E-02 -.119E-01   -.568E-13 0.000E+00 0.568E-13   -.650E-02 -.745E-02 0.117E-01
 
 
 POSITION                                       TOTAL-FORCE (eV/Angst)
 -----------------------------------------------------------------------------------
      9.18313      6.88882     10.86875        -0.105886     -0.289001      0.129480
     10.63426     10.52739      8.91255         0.142684      0.005451     -0.276572
      9.36217      9.47298     11.09359        -0.145309     -0.005899      0.283856
     10.45351      7.91380      8.71209         0.125851     -0.200195     -0.276383
     10.81850     13.11226      9.12774         0.107528      0.287520     -0.133073
      9.54706     12.08638     11.28548        -0.124868      0.202124      0.272692
 -----------------------------------------------------------------------------------
    total drift:                                0.001105      0.000228      0.000883


--------------------------------------------------------------------------------------------------------



  FREE ENERGIE OF THE ION-ELECTRON SYSTEM (eV)
  ---------------------------------------------------
  free  energy   TOTEN  =        -9.88204782 eV

  energy  without entropy=       -9.88204782  energy(sigma->0) =       -9.88204782
 


--------------------------------------------------------------------------------------------------------


    POTLOK:  cpu time      2.7433: real time      2.7453


--------------------------------------------------------------------------------------------------------


     LOOP+:  cpu time    174.3849: real time    174.7208
    4ORBIT:  cpu time      0.0000: real time      0.0000

 total amount of memory used by VASP MPI-rank0   202251. kBytes
=======================================================================

   base      :      30000. kBytes
   nonlr-proj:       1392. kBytes
   fftplans  :       7273. kBytes
   grid      :       5947. kBytes
   one-center:         15. kBytes
   HF        :         64. kBytes
   wavefun   :       1944. kBytes
   fock_wrk  :     155616. kBytes
 
  
  
 General timing and accounting informations for this job:
 ========================================================
  
                  Total CPU time used (sec):      182.828
                            User time (sec):      176.332
                          System time (sec):        6.496
                         Elapsed time (sec):      184.046
  
                   Maximum memory used (kb):      989116.
                   Average memory used (kb):          N/A
  
                          Minor page faults:       100830
                          Major page faults:            0
                 Voluntary context switches:         5516
