 **********************************************************************
                          MRCC program system
 **********************************************************************
 
                              Written by
     Mihaly Kallay, Peter R. Nagy, David Mester, Laszlo Gyevi-Nagy,
        Jozsef Csoka, P. Bernat Szabo, Zoltan Rolik, Gyula Samu,
     Jozsef Csontos, Bence Hegely, Adam Ganyecz, Istvan Ladjanszki,
       Lorant Szegedy, Bence Ladoczki, Klara Petrov, Mate Farkas,
                    Pal D. Mezei, and Reka A. Horvath
 
        Department of Physical Chemistry and Materials Science
            Budapest University of Technology and Economics
                  Budapest P.O.Box 91, H-1521 Hungary
 
                              www.mrcc.hu
 
                      Release date: March 18, 2022

 ************************ 2023-02-27 00:38:33 *************************
 Executing minp...

 Reading input from MINP...
 
 Input file:
 
calc=LNO-CCSD(T)
verbosity=3
mem=220GB
symm=off
unit=angs
scfiguess=mo
scfalg=locfit1
lcorthr=normal
bpedo=0.99999
usedisk=0
ccmaxit=400
ccsdalg=dfdirect
ccsdthreads=4
ccsdmkl=thr
ptthreads=4
ECP=MCDHF-ECP-28
basis=bse_ACVTZ
basis_sm=def2-SVP
dfbasis_scf=def2-QZVPP-RI-JK
dfbasis_cor=bse_ACVTZ_mp2fit
core=0
unit=angs
geom=xyz
6
Ag6_2
Ag    -0.22155627    -0.77225692     0.63187260
Ag    -1.63684801    -0.57910561    -1.62358490
Ag    -1.98358381     1.22709558     0.47292128
Ag     0.47405280     1.55212998     1.74725388
Ag     2.33704250    -0.04359935     0.41836122
Ag     1.03089279    -1.38426369    -1.64682407

ghost=serialno


 
 
 Checking keyword combinations...
 
 Keywords:
 
 active=none
 agrid=ld0006-ld0590
 agrid_pssp=ld0006-ld0194
 agrid_pssp_sm=ld0006-ld0074
 basis=bse_acvtz
 basis_sm=def2-svp
 basopt=off
 bfbasis=none
 bfgsmem=10
 bfgstol=1.0d-3
 bpcompo=0.985
 bpcompv=0.98
 bpdfo=0.985
 bpocc=0.99999
 bppdo=0.999d0
 bppdv=0.98
 bpedo=0.99999
 bpedv=0.995d0
 calc=ccsd(t)
 ccmaxit=400
 ccprog=ccsd
 ccsdalg=dfdirect
 ccsdmkl=thr
 ccsdrest=off
 ccsdthreads=4
 cctol=5
 charge=0
 cialg=direct
 ciguess=off
 cmpgrp=auto
 comprest=off
 core=corr
 corembed=off
 csapprox=off
 cvs=off
 dboc=off
 delocsomofact=
 dendec=cholesky
 dens=0
 dfalg=lineq
 dfbasis_cab=none
 dfbasis_cor=bse_acvtz_mp2fit
 dfbasis_scf=def2-qzvpp-ri-jk
 dfbasis_scf_sm=def2-qzvpp-ri-jk
 dfintran=drpa
 dft=off
 dhexc=adc(2)
 diag=david
 docc=
 domrad=10.d0
 drpaalg=auto
 dual=off
 dual_df=off
 ecp=mcdhf-ecp-28
 edisp=off
 edisp_embed=off
 embed=off
 etemp=300
 epert=none
 eps=
 espcharge=off
 excrad=1.0
 excrad_fin=0.100000000D-02
 fitting=coulomb
 fmm=off
 fmmord=8
 freq=off
 gamma=1.d0
 gauss=spher
 geom=xyz
 gopt=off
 ghost=serialno
 gtol=7
 grdens=off
 gridbatch_cos=2000
 grtol=10
 guido_ct=off
 hamilton=dc
 iface=none
 intalg=auto
 itol=10
 laptol=1.d-2
 lccoporder=lccfirst
 lcorthr=normal
 lccrest=off
 lmp2dens=on
 lnoepso=1e-5
 lnoepsv=1e-6
 boysalg=jacobi
 localcc=2021
 localcorrsymm=off
 locintrf=direct
 mact=
 maxact=off
 maxdim=100
 maxex=0
 maxmicroit=100
 mcscfiguess=hf
 mem=220gb
 mmprog=
 molden=on
 mpitasks=1
 mulmet=3
 mult=
 nacto=0
 nactv=0
 naf_amp=1.d-2
 naf_cor=1e-2
 naf_scf=off
 nafalg=albe
 naftyp=jpq
 nchol=auto
 ndeps=1e-3
 nstate=1
 nsing=0
 nto=off
 ntrip=0
 occ=
 occri=off
 oniom=off
 oniom_eechg=off
 oniom_pcm=off
 oniom_qcorr=off
 optalg=
 optmaxit=50
 optetol=1e-6
 optex=0
 optgtol=1e-4
 optstol=1e-3
 orblocc=boys
 orbloce=off
 orbloco=boys
 orblocv=pao
 orblocguess=cholesky
 osveps=-1.d0
 ovirt=off
 ovltol=1e-7
 ovosnorb=80.0
 pcm=off
 popul=off
 pressure=100000
 pssp=off
 ptfreq=0.0
 ptthreads=4
 qro=off
 qscf=off
 qmmm=off
 redcost_exc=off
 redcost_tddft=0.985d0
 refdet=none
 rest=0
 rgrid=log3
 rism=off
 rohfcore=standard
 rohftype=semicanonical
 scfalg=locfit1
 scf_conv=difficult
 scfdamp=0.0d0
 scfdamp_mode=off
 scfdamp_end=50
 scfdamp_dampstep=0.d0
 scfdamp_dtol=0.0d0
 scfdamp_maxfact=0.0d0
 scfdamp_minfact=0.0d0
 scfdiis=on
 scfdiis_dtol=0.0d0
 scfdiis_end=50
 scfdiis_start=2
 scfdiis_step=1
 scfdiis_watch=off
 scfdiis_wrange=10
 scfdiis_wlimit=5
 scfdiis_delmax=2
 scfdtol=7
 scfext=10
 scfguessdens=
 scfiguess=mo
 scfloc=pm
 scflshift=0.20
 scflshift_end=8
 scflshift_dtol=0.0
 scflshift_gaptol=0.20
 scfmaxit=50
 scftype=
 scftol=6
 scspe=1.d0
 scsph=1.d0
 scsps=1.2d0
 scsps_t=1.2d0
 scspt=0.33333333333333
 scspt_t=0.33333333333333
 scspv=1.d0
 spairtol=-1.d0
 sqmprog=
 subminp=top
 symm=0
 talg=lapl
 temp=298.15
 test=off
 theodore=off
 tlmo=0.999
 tpao=0.94
 tprint=off
 uncontract=off
 unit=angs
 usedisk=0
 verbosity=3
 wpairtol=1.d-5

 ************************ 2023-02-27 00:38:33 *************************
 Executing integ...

 Allocation of 220.0 Gbytes of memory...
 
 
 Number of atoms:                  6
 Charge:                           0
 Number of electrons:            114
 Number of core electrons:        48
 Spin multiplicity:                1
 
                 Cartesian coordinates [bohr]      Atomic mass [AMU]  Z
   1  Ag   -0.41868067   -1.45935408    1.19406616   106.905092      47
   2  Ag   -3.09319445   -1.09435100   -3.06813080   106.905092      47
   3  Ag   -3.74843015    2.31887458    0.89369170   106.905092      47
   4  Ag    0.89582996    2.93310057    3.30183130   106.905092      47
   5  Ag    4.41637027   -0.08239083    0.79058813   106.905092      47
   6  Ag    1.94810504   -2.61587926   -3.11204647   106.905092      47
 
 This molecule is an asymmetric top.
 
 Point group: C1  
 Computational point group: C1  
 
 Cartesian coordinates in standard orientation [bohr]
   1  Ag    0.00143544    0.00050128    1.93152776
   2  Ag   -2.15225016   -3.92291583   -0.39677863
   3  Ag    3.07587756   -3.25801623   -0.38845876
   4  Ag    4.06160112    1.91631073   -0.37259872
   5  Ag   -0.57121358    4.43217576   -0.40703467
   6  Ag   -4.41545039    0.83194429   -0.36665699
 
 Nuclear repulsion energy [au]:        912.082515426274
 
 
 Basis set information:
 
 Maximum angular momentum: i
 Maximum number of contracted Gaussians:   13
 Maximum number of primitive Gaussians:    13
 Spherical harmonic GTOs are used.
 
 
 Conventional basis set:
 
   1  Ag bse_acvtz [ 13s 12p 11d 4f 3g | 8s 8p 7d 4f 3g ]
   2  Ag bse_acvtz [ 13s 12p 11d 4f 3g | 8s 8p 7d 4f 3g ]
   3  Ag bse_acvtz [ 13s 12p 11d 4f 3g | 8s 8p 7d 4f 3g ]
   4  Ag bse_acvtz [ 13s 12p 11d 4f 3g | 8s 8p 7d 4f 3g ]
   5  Ag bse_acvtz [ 13s 12p 11d 4f 3g | 8s 8p 7d 4f 3g ]
   6  Ag bse_acvtz [ 13s 12p 11d 4f 3g | 8s 8p 7d 4f 3g ]
 
 Basis functions:
            1             2             3             4             5             6             7             8             9            10
    0    1Ag1s         1Ag2s         1Ag3s         1Ag4s         1Ag5s         1Ag6s         1Ag7s         1Ag8s         1Ag1pz        1Ag1py    
    1    1Ag1px        1Ag2pz        1Ag2py        1Ag2px        1Ag3pz        1Ag3py        1Ag3px        1Ag4pz        1Ag4py        1Ag4px    
    2    1Ag5pz        1Ag5py        1Ag5px        1Ag6pz        1Ag6py        1Ag6px        1Ag7pz        1Ag7py        1Ag7px        1Ag8pz    
    3    1Ag8py        1Ag8px        1Ag1d-2       1Ag1d-1       1Ag1d0        1Ag1d+1       1Ag1d+2       1Ag2d-2       1Ag2d-1       1Ag2d0    
    4    1Ag2d+1       1Ag2d+2       1Ag3d-2       1Ag3d-1       1Ag3d0        1Ag3d+1       1Ag3d+2       1Ag4d-2       1Ag4d-1       1Ag4d0    
    5    1Ag4d+1       1Ag4d+2       1Ag5d-2       1Ag5d-1       1Ag5d0        1Ag5d+1       1Ag5d+2       1Ag6d-2       1Ag6d-1       1Ag6d0    
    6    1Ag6d+1       1Ag6d+2       1Ag7d-2       1Ag7d-1       1Ag7d0        1Ag7d+1       1Ag7d+2       1Ag1f-3       1Ag1f-2       1Ag1f-1   
    7    1Ag1f0        1Ag1f+1       1Ag1f+2       1Ag1f+3       1Ag2f-3       1Ag2f-2       1Ag2f-1       1Ag2f0        1Ag2f+1       1Ag2f+2   
    8    1Ag2f+3       1Ag3f-3       1Ag3f-2       1Ag3f-1       1Ag3f0        1Ag3f+1       1Ag3f+2       1Ag3f+3       1Ag4f-3       1Ag4f-2   
    9    1Ag4f-1       1Ag4f0        1Ag4f+1       1Ag4f+2       1Ag4f+3       1Ag1g-4       1Ag1g-3       1Ag1g-2       1Ag1g-1       1Ag1g0    
   10    1Ag1g+1       1Ag1g+2       1Ag1g+3       1Ag1g+4       1Ag2g-4       1Ag2g-3       1Ag2g-2       1Ag2g-1       1Ag2g0        1Ag2g+1   
   11    1Ag2g+2       1Ag2g+3       1Ag2g+4       1Ag3g-4       1Ag3g-3       1Ag3g-2       1Ag3g-1       1Ag3g0        1Ag3g+1       1Ag3g+2   
   12    1Ag3g+3       1Ag3g+4       2Ag1s         2Ag2s         2Ag3s         2Ag4s         2Ag5s         2Ag6s         2Ag7s         2Ag8s     
   13    2Ag1pz        2Ag1py        2Ag1px        2Ag2pz        2Ag2py        2Ag2px        2Ag3pz        2Ag3py        2Ag3px        2Ag4pz    
   14    2Ag4py        2Ag4px        2Ag5pz        2Ag5py        2Ag5px        2Ag6pz        2Ag6py        2Ag6px        2Ag7pz        2Ag7py    
   15    2Ag7px        2Ag8pz        2Ag8py        2Ag8px        2Ag1d-2       2Ag1d-1       2Ag1d0        2Ag1d+1       2Ag1d+2       2Ag2d-2   
   16    2Ag2d-1       2Ag2d0        2Ag2d+1       2Ag2d+2       2Ag3d-2       2Ag3d-1       2Ag3d0        2Ag3d+1       2Ag3d+2       2Ag4d-2   
   17    2Ag4d-1       2Ag4d0        2Ag4d+1       2Ag4d+2       2Ag5d-2       2Ag5d-1       2Ag5d0        2Ag5d+1       2Ag5d+2       2Ag6d-2   
   18    2Ag6d-1       2Ag6d0        2Ag6d+1       2Ag6d+2       2Ag7d-2       2Ag7d-1       2Ag7d0        2Ag7d+1       2Ag7d+2       2Ag1f-3   
   19    2Ag1f-2       2Ag1f-1       2Ag1f0        2Ag1f+1       2Ag1f+2       2Ag1f+3       2Ag2f-3       2Ag2f-2       2Ag2f-1       2Ag2f0    
   20    2Ag2f+1       2Ag2f+2       2Ag2f+3       2Ag3f-3       2Ag3f-2       2Ag3f-1       2Ag3f0        2Ag3f+1       2Ag3f+2       2Ag3f+3   
   21    2Ag4f-3       2Ag4f-2       2Ag4f-1       2Ag4f0        2Ag4f+1       2Ag4f+2       2Ag4f+3       2Ag1g-4       2Ag1g-3       2Ag1g-2   
   22    2Ag1g-1       2Ag1g0        2Ag1g+1       2Ag1g+2       2Ag1g+3       2Ag1g+4       2Ag2g-4       2Ag2g-3       2Ag2g-2       2Ag2g-1   
   23    2Ag2g0        2Ag2g+1       2Ag2g+2       2Ag2g+3       2Ag2g+4       2Ag3g-4       2Ag3g-3       2Ag3g-2       2Ag3g-1       2Ag3g0    
   24    2Ag3g+1       2Ag3g+2       2Ag3g+3       2Ag3g+4       3Ag1s         3Ag2s         3Ag3s         3Ag4s         3Ag5s         3Ag6s     
   25    3Ag7s         3Ag8s         3Ag1pz        3Ag1py        3Ag1px        3Ag2pz        3Ag2py        3Ag2px        3Ag3pz        3Ag3py    
   26    3Ag3px        3Ag4pz        3Ag4py        3Ag4px        3Ag5pz        3Ag5py        3Ag5px        3Ag6pz        3Ag6py        3Ag6px    
   27    3Ag7pz        3Ag7py        3Ag7px        3Ag8pz        3Ag8py        3Ag8px        3Ag1d-2       3Ag1d-1       3Ag1d0        3Ag1d+1   
   28    3Ag1d+2       3Ag2d-2       3Ag2d-1       3Ag2d0        3Ag2d+1       3Ag2d+2       3Ag3d-2       3Ag3d-1       3Ag3d0        3Ag3d+1   
   29    3Ag3d+2       3Ag4d-2       3Ag4d-1       3Ag4d0        3Ag4d+1       3Ag4d+2       3Ag5d-2       3Ag5d-1       3Ag5d0        3Ag5d+1   
   30    3Ag5d+2       3Ag6d-2       3Ag6d-1       3Ag6d0        3Ag6d+1       3Ag6d+2       3Ag7d-2       3Ag7d-1       3Ag7d0        3Ag7d+1   
   31    3Ag7d+2       3Ag1f-3       3Ag1f-2       3Ag1f-1       3Ag1f0        3Ag1f+1       3Ag1f+2       3Ag1f+3       3Ag2f-3       3Ag2f-2   
   32    3Ag2f-1       3Ag2f0        3Ag2f+1       3Ag2f+2       3Ag2f+3       3Ag3f-3       3Ag3f-2       3Ag3f-1       3Ag3f0        3Ag3f+1   
   33    3Ag3f+2       3Ag3f+3       3Ag4f-3       3Ag4f-2       3Ag4f-1       3Ag4f0        3Ag4f+1       3Ag4f+2       3Ag4f+3       3Ag1g-4   
   34    3Ag1g-3       3Ag1g-2       3Ag1g-1       3Ag1g0        3Ag1g+1       3Ag1g+2       3Ag1g+3       3Ag1g+4       3Ag2g-4       3Ag2g-3   
   35    3Ag2g-2       3Ag2g-1       3Ag2g0        3Ag2g+1       3Ag2g+2       3Ag2g+3       3Ag2g+4       3Ag3g-4       3Ag3g-3       3Ag3g-2   
   36    3Ag3g-1       3Ag3g0        3Ag3g+1       3Ag3g+2       3Ag3g+3       3Ag3g+4       4Ag1s         4Ag2s         4Ag3s         4Ag4s     
   37    4Ag5s         4Ag6s         4Ag7s         4Ag8s         4Ag1pz        4Ag1py        4Ag1px        4Ag2pz        4Ag2py        4Ag2px    
   38    4Ag3pz        4Ag3py        4Ag3px        4Ag4pz        4Ag4py        4Ag4px        4Ag5pz        4Ag5py        4Ag5px        4Ag6pz    
   39    4Ag6py        4Ag6px        4Ag7pz        4Ag7py        4Ag7px        4Ag8pz        4Ag8py        4Ag8px        4Ag1d-2       4Ag1d-1   
   40    4Ag1d0        4Ag1d+1       4Ag1d+2       4Ag2d-2       4Ag2d-1       4Ag2d0        4Ag2d+1       4Ag2d+2       4Ag3d-2       4Ag3d-1   
   41    4Ag3d0        4Ag3d+1       4Ag3d+2       4Ag4d-2       4Ag4d-1       4Ag4d0        4Ag4d+1       4Ag4d+2       4Ag5d-2       4Ag5d-1   
   42    4Ag5d0        4Ag5d+1       4Ag5d+2       4Ag6d-2       4Ag6d-1       4Ag6d0        4Ag6d+1       4Ag6d+2       4Ag7d-2       4Ag7d-1   
   43    4Ag7d0        4Ag7d+1       4Ag7d+2       4Ag1f-3       4Ag1f-2       4Ag1f-1       4Ag1f0        4Ag1f+1       4Ag1f+2       4Ag1f+3   
   44    4Ag2f-3       4Ag2f-2       4Ag2f-1       4Ag2f0        4Ag2f+1       4Ag2f+2       4Ag2f+3       4Ag3f-3       4Ag3f-2       4Ag3f-1   
   45    4Ag3f0        4Ag3f+1       4Ag3f+2       4Ag3f+3       4Ag4f-3       4Ag4f-2       4Ag4f-1       4Ag4f0        4Ag4f+1       4Ag4f+2   
   46    4Ag4f+3       4Ag1g-4       4Ag1g-3       4Ag1g-2       4Ag1g-1       4Ag1g0        4Ag1g+1       4Ag1g+2       4Ag1g+3       4Ag1g+4   
   47    4Ag2g-4       4Ag2g-3       4Ag2g-2       4Ag2g-1       4Ag2g0        4Ag2g+1       4Ag2g+2       4Ag2g+3       4Ag2g+4       4Ag3g-4   
   48    4Ag3g-3       4Ag3g-2       4Ag3g-1       4Ag3g0        4Ag3g+1       4Ag3g+2       4Ag3g+3       4Ag3g+4       5Ag1s         5Ag2s     
   49    5Ag3s         5Ag4s         5Ag5s         5Ag6s         5Ag7s         5Ag8s         5Ag1pz        5Ag1py        5Ag1px        5Ag2pz    
   50    5Ag2py        5Ag2px        5Ag3pz        5Ag3py        5Ag3px        5Ag4pz        5Ag4py        5Ag4px        5Ag5pz        5Ag5py    
   51    5Ag5px        5Ag6pz        5Ag6py        5Ag6px        5Ag7pz        5Ag7py        5Ag7px        5Ag8pz        5Ag8py        5Ag8px    
   52    5Ag1d-2       5Ag1d-1       5Ag1d0        5Ag1d+1       5Ag1d+2       5Ag2d-2       5Ag2d-1       5Ag2d0        5Ag2d+1       5Ag2d+2   
   53    5Ag3d-2       5Ag3d-1       5Ag3d0        5Ag3d+1       5Ag3d+2       5Ag4d-2       5Ag4d-1       5Ag4d0        5Ag4d+1       5Ag4d+2   
   54    5Ag5d-2       5Ag5d-1       5Ag5d0        5Ag5d+1       5Ag5d+2       5Ag6d-2       5Ag6d-1       5Ag6d0        5Ag6d+1       5Ag6d+2   
   55    5Ag7d-2       5Ag7d-1       5Ag7d0        5Ag7d+1       5Ag7d+2       5Ag1f-3       5Ag1f-2       5Ag1f-1       5Ag1f0        5Ag1f+1   
   56    5Ag1f+2       5Ag1f+3       5Ag2f-3       5Ag2f-2       5Ag2f-1       5Ag2f0        5Ag2f+1       5Ag2f+2       5Ag2f+3       5Ag3f-3   
   57    5Ag3f-2       5Ag3f-1       5Ag3f0        5Ag3f+1       5Ag3f+2       5Ag3f+3       5Ag4f-3       5Ag4f-2       5Ag4f-1       5Ag4f0    
   58    5Ag4f+1       5Ag4f+2       5Ag4f+3       5Ag1g-4       5Ag1g-3       5Ag1g-2       5Ag1g-1       5Ag1g0        5Ag1g+1       5Ag1g+2   
   59    5Ag1g+3       5Ag1g+4       5Ag2g-4       5Ag2g-3       5Ag2g-2       5Ag2g-1       5Ag2g0        5Ag2g+1       5Ag2g+2       5Ag2g+3   
   60    5Ag2g+4       5Ag3g-4       5Ag3g-3       5Ag3g-2       5Ag3g-1       5Ag3g0        5Ag3g+1       5Ag3g+2       5Ag3g+3       5Ag3g+4   
   61    6Ag1s         6Ag2s         6Ag3s         6Ag4s         6Ag5s         6Ag6s         6Ag7s         6Ag8s         6Ag1pz        6Ag1py    
   62    6Ag1px        6Ag2pz        6Ag2py        6Ag2px        6Ag3pz        6Ag3py        6Ag3px        6Ag4pz        6Ag4py        6Ag4px    
   63    6Ag5pz        6Ag5py        6Ag5px        6Ag6pz        6Ag6py        6Ag6px        6Ag7pz        6Ag7py        6Ag7px        6Ag8pz    
   64    6Ag8py        6Ag8px        6Ag1d-2       6Ag1d-1       6Ag1d0        6Ag1d+1       6Ag1d+2       6Ag2d-2       6Ag2d-1       6Ag2d0    
   65    6Ag2d+1       6Ag2d+2       6Ag3d-2       6Ag3d-1       6Ag3d0        6Ag3d+1       6Ag3d+2       6Ag4d-2       6Ag4d-1       6Ag4d0    
   66    6Ag4d+1       6Ag4d+2       6Ag5d-2       6Ag5d-1       6Ag5d0        6Ag5d+1       6Ag5d+2       6Ag6d-2       6Ag6d-1       6Ag6d0    
   67    6Ag6d+1       6Ag6d+2       6Ag7d-2       6Ag7d-1       6Ag7d0        6Ag7d+1       6Ag7d+2       6Ag1f-3       6Ag1f-2       6Ag1f-1   
   68    6Ag1f0        6Ag1f+1       6Ag1f+2       6Ag1f+3       6Ag2f-3       6Ag2f-2       6Ag2f-1       6Ag2f0        6Ag2f+1       6Ag2f+2   
   69    6Ag2f+3       6Ag3f-3       6Ag3f-2       6Ag3f-1       6Ag3f0        6Ag3f+1       6Ag3f+2       6Ag3f+3       6Ag4f-3       6Ag4f-2   
   70    6Ag4f-1       6Ag4f0        6Ag4f+1       6Ag4f+2       6Ag4f+3       6Ag1g-4       6Ag1g-3       6Ag1g-2       6Ag1g-1       6Ag1g0    
   71    6Ag1g+1       6Ag1g+2       6Ag1g+3       6Ag1g+4       6Ag2g-4       6Ag2g-3       6Ag2g-2       6Ag2g-1       6Ag2g0        6Ag2g+1   
   72    6Ag2g+2       6Ag2g+3       6Ag2g+4       6Ag3g-4       6Ag3g-3       6Ag3g-2       6Ag3g-1       6Ag3g0        6Ag3g+1       6Ag3g+2   
   73    6Ag3g+3       6Ag3g+4   
 
 Maximum number of basis functions per shell:   35
 Total number of basis functions:    732
 
 
 Fitting basis set for the SCF calculation:
 
   1  Ag def2-qzvpp-ri-jk [ 13s 12p 10d 9f 6g 3h 2i | 11s 10p 9d 8f 6g 3h 2i ]
   2  Ag def2-qzvpp-ri-jk [ 13s 12p 10d 9f 6g 3h 2i | 11s 10p 9d 8f 6g 3h 2i ]
   3  Ag def2-qzvpp-ri-jk [ 13s 12p 10d 9f 6g 3h 2i | 11s 10p 9d 8f 6g 3h 2i ]
   4  Ag def2-qzvpp-ri-jk [ 13s 12p 10d 9f 6g 3h 2i | 11s 10p 9d 8f 6g 3h 2i ]
   5  Ag def2-qzvpp-ri-jk [ 13s 12p 10d 9f 6g 3h 2i | 11s 10p 9d 8f 6g 3h 2i ]
   6  Ag def2-qzvpp-ri-jk [ 13s 12p 10d 9f 6g 3h 2i | 11s 10p 9d 8f 6g 3h 2i ]
 
 Basis functions:
            1             2             3             4             5             6             7             8             9            10
    0    1Ag1s         1Ag2s         1Ag3s         1Ag4s         1Ag5s         1Ag6s         1Ag7s         1Ag8s         1Ag9s         1Ag10s    
    1    1Ag11s        1Ag1pz        1Ag1py        1Ag1px        1Ag2pz        1Ag2py        1Ag2px        1Ag3pz        1Ag3py        1Ag3px    
    2    1Ag4pz        1Ag4py        1Ag4px        1Ag5pz        1Ag5py        1Ag5px        1Ag6pz        1Ag6py        1Ag6px        1Ag7pz    
    3    1Ag7py        1Ag7px        1Ag8pz        1Ag8py        1Ag8px        1Ag9pz        1Ag9py        1Ag9px        1Ag10pz       1Ag10py   
    4    1Ag10px       1Ag1d-2       1Ag1d-1       1Ag1d0        1Ag1d+1       1Ag1d+2       1Ag2d-2       1Ag2d-1       1Ag2d0        1Ag2d+1   
    5    1Ag2d+2       1Ag3d-2       1Ag3d-1       1Ag3d0        1Ag3d+1       1Ag3d+2       1Ag4d-2       1Ag4d-1       1Ag4d0        1Ag4d+1   
    6    1Ag4d+2       1Ag5d-2       1Ag5d-1       1Ag5d0        1Ag5d+1       1Ag5d+2       1Ag6d-2       1Ag6d-1       1Ag6d0        1Ag6d+1   
    7    1Ag6d+2       1Ag7d-2       1Ag7d-1       1Ag7d0        1Ag7d+1       1Ag7d+2       1Ag8d-2       1Ag8d-1       1Ag8d0        1Ag8d+1   
    8    1Ag8d+2       1Ag9d-2       1Ag9d-1       1Ag9d0        1Ag9d+1       1Ag9d+2       1Ag1f-3       1Ag1f-2       1Ag1f-1       1Ag1f0    
    9    1Ag1f+1       1Ag1f+2       1Ag1f+3       1Ag2f-3       1Ag2f-2       1Ag2f-1       1Ag2f0        1Ag2f+1       1Ag2f+2       1Ag2f+3   
   10    1Ag3f-3       1Ag3f-2       1Ag3f-1       1Ag3f0        1Ag3f+1       1Ag3f+2       1Ag3f+3       1Ag4f-3       1Ag4f-2       1Ag4f-1   
   11    1Ag4f0        1Ag4f+1       1Ag4f+2       1Ag4f+3       1Ag5f-3       1Ag5f-2       1Ag5f-1       1Ag5f0        1Ag5f+1       1Ag5f+2   
   12    1Ag5f+3       1Ag6f-3       1Ag6f-2       1Ag6f-1       1Ag6f0        1Ag6f+1       1Ag6f+2       1Ag6f+3       1Ag7f-3       1Ag7f-2   
   13    1Ag7f-1       1Ag7f0        1Ag7f+1       1Ag7f+2       1Ag7f+3       1Ag8f-3       1Ag8f-2       1Ag8f-1       1Ag8f0        1Ag8f+1   
   14    1Ag8f+2       1Ag8f+3       1Ag1g-4       1Ag1g-3       1Ag1g-2       1Ag1g-1       1Ag1g0        1Ag1g+1       1Ag1g+2       1Ag1g+3   
   15    1Ag1g+4       1Ag2g-4       1Ag2g-3       1Ag2g-2       1Ag2g-1       1Ag2g0        1Ag2g+1       1Ag2g+2       1Ag2g+3       1Ag2g+4   
   16    1Ag3g-4       1Ag3g-3       1Ag3g-2       1Ag3g-1       1Ag3g0        1Ag3g+1       1Ag3g+2       1Ag3g+3       1Ag3g+4       1Ag4g-4   
   17    1Ag4g-3       1Ag4g-2       1Ag4g-1       1Ag4g0        1Ag4g+1       1Ag4g+2       1Ag4g+3       1Ag4g+4       1Ag5g-4       1Ag5g-3   
   18    1Ag5g-2       1Ag5g-1       1Ag5g0        1Ag5g+1       1Ag5g+2       1Ag5g+3       1Ag5g+4       1Ag6g-4       1Ag6g-3       1Ag6g-2   
   19    1Ag6g-1       1Ag6g0        1Ag6g+1       1Ag6g+2       1Ag6g+3       1Ag6g+4       1Ag1h-5       1Ag1h-4       1Ag1h-3       1Ag1h-2   
   20    1Ag1h-1       1Ag1h0        1Ag1h+1       1Ag1h+2       1Ag1h+3       1Ag1h+4       1Ag1h+5       1Ag2h-5       1Ag2h-4       1Ag2h-3   
   21    1Ag2h-2       1Ag2h-1       1Ag2h0        1Ag2h+1       1Ag2h+2       1Ag2h+3       1Ag2h+4       1Ag2h+5       1Ag3h-5       1Ag3h-4   
   22    1Ag3h-3       1Ag3h-2       1Ag3h-1       1Ag3h0        1Ag3h+1       1Ag3h+2       1Ag3h+3       1Ag3h+4       1Ag3h+5       1Ag1i-6   
   23    1Ag1i-5       1Ag1i-4       1Ag1i-3       1Ag1i-2       1Ag1i-1       1Ag1i0        1Ag1i+1       1Ag1i+2       1Ag1i+3       1Ag1i+4   
   24    1Ag1i+5       1Ag1i+6       1Ag2i-6       1Ag2i-5       1Ag2i-4       1Ag2i-3       1Ag2i-2       1Ag2i-1       1Ag2i0        1Ag2i+1   
   25    1Ag2i+2       1Ag2i+3       1Ag2i+4       1Ag2i+5       1Ag2i+6       2Ag1s         2Ag2s         2Ag3s         2Ag4s         2Ag5s     
   26    2Ag6s         2Ag7s         2Ag8s         2Ag9s         2Ag10s        2Ag11s        2Ag1pz        2Ag1py        2Ag1px        2Ag2pz    
   27    2Ag2py        2Ag2px        2Ag3pz        2Ag3py        2Ag3px        2Ag4pz        2Ag4py        2Ag4px        2Ag5pz        2Ag5py    
   28    2Ag5px        2Ag6pz        2Ag6py        2Ag6px        2Ag7pz        2Ag7py        2Ag7px        2Ag8pz        2Ag8py        2Ag8px    
   29    2Ag9pz        2Ag9py        2Ag9px        2Ag10pz       2Ag10py       2Ag10px       2Ag1d-2       2Ag1d-1       2Ag1d0        2Ag1d+1   
   30    2Ag1d+2       2Ag2d-2       2Ag2d-1       2Ag2d0        2Ag2d+1       2Ag2d+2       2Ag3d-2       2Ag3d-1       2Ag3d0        2Ag3d+1   
   31    2Ag3d+2       2Ag4d-2       2Ag4d-1       2Ag4d0        2Ag4d+1       2Ag4d+2       2Ag5d-2       2Ag5d-1       2Ag5d0        2Ag5d+1   
   32    2Ag5d+2       2Ag6d-2       2Ag6d-1       2Ag6d0        2Ag6d+1       2Ag6d+2       2Ag7d-2       2Ag7d-1       2Ag7d0        2Ag7d+1   
   33    2Ag7d+2       2Ag8d-2       2Ag8d-1       2Ag8d0        2Ag8d+1       2Ag8d+2       2Ag9d-2       2Ag9d-1       2Ag9d0        2Ag9d+1   
   34    2Ag9d+2       2Ag1f-3       2Ag1f-2       2Ag1f-1       2Ag1f0        2Ag1f+1       2Ag1f+2       2Ag1f+3       2Ag2f-3       2Ag2f-2   
   35    2Ag2f-1       2Ag2f0        2Ag2f+1       2Ag2f+2       2Ag2f+3       2Ag3f-3       2Ag3f-2       2Ag3f-1       2Ag3f0        2Ag3f+1   
   36    2Ag3f+2       2Ag3f+3       2Ag4f-3       2Ag4f-2       2Ag4f-1       2Ag4f0        2Ag4f+1       2Ag4f+2       2Ag4f+3       2Ag5f-3   
   37    2Ag5f-2       2Ag5f-1       2Ag5f0        2Ag5f+1       2Ag5f+2       2Ag5f+3       2Ag6f-3       2Ag6f-2       2Ag6f-1       2Ag6f0    
   38    2Ag6f+1       2Ag6f+2       2Ag6f+3       2Ag7f-3       2Ag7f-2       2Ag7f-1       2Ag7f0        2Ag7f+1       2Ag7f+2       2Ag7f+3   
   39    2Ag8f-3       2Ag8f-2       2Ag8f-1       2Ag8f0        2Ag8f+1       2Ag8f+2       2Ag8f+3       2Ag1g-4       2Ag1g-3       2Ag1g-2   
   40    2Ag1g-1       2Ag1g0        2Ag1g+1       2Ag1g+2       2Ag1g+3       2Ag1g+4       2Ag2g-4       2Ag2g-3       2Ag2g-2       2Ag2g-1   
   41    2Ag2g0        2Ag2g+1       2Ag2g+2       2Ag2g+3       2Ag2g+4       2Ag3g-4       2Ag3g-3       2Ag3g-2       2Ag3g-1       2Ag3g0    
   42    2Ag3g+1       2Ag3g+2       2Ag3g+3       2Ag3g+4       2Ag4g-4       2Ag4g-3       2Ag4g-2       2Ag4g-1       2Ag4g0        2Ag4g+1   
   43    2Ag4g+2       2Ag4g+3       2Ag4g+4       2Ag5g-4       2Ag5g-3       2Ag5g-2       2Ag5g-1       2Ag5g0        2Ag5g+1       2Ag5g+2   
   44    2Ag5g+3       2Ag5g+4       2Ag6g-4       2Ag6g-3       2Ag6g-2       2Ag6g-1       2Ag6g0        2Ag6g+1       2Ag6g+2       2Ag6g+3   
   45    2Ag6g+4       2Ag1h-5       2Ag1h-4       2Ag1h-3       2Ag1h-2       2Ag1h-1       2Ag1h0        2Ag1h+1       2Ag1h+2       2Ag1h+3   
   46    2Ag1h+4       2Ag1h+5       2Ag2h-5       2Ag2h-4       2Ag2h-3       2Ag2h-2       2Ag2h-1       2Ag2h0        2Ag2h+1       2Ag2h+2   
   47    2Ag2h+3       2Ag2h+4       2Ag2h+5       2Ag3h-5       2Ag3h-4       2Ag3h-3       2Ag3h-2       2Ag3h-1       2Ag3h0        2Ag3h+1   
   48    2Ag3h+2       2Ag3h+3       2Ag3h+4       2Ag3h+5       2Ag1i-6       2Ag1i-5       2Ag1i-4       2Ag1i-3       2Ag1i-2       2Ag1i-1   
   49    2Ag1i0        2Ag1i+1       2Ag1i+2       2Ag1i+3       2Ag1i+4       2Ag1i+5       2Ag1i+6       2Ag2i-6       2Ag2i-5       2Ag2i-4   
   50    2Ag2i-3       2Ag2i-2       2Ag2i-1       2Ag2i0        2Ag2i+1       2Ag2i+2       2Ag2i+3       2Ag2i+4       2Ag2i+5       2Ag2i+6   
   51    3Ag1s         3Ag2s         3Ag3s         3Ag4s         3Ag5s         3Ag6s         3Ag7s         3Ag8s         3Ag9s         3Ag10s    
   52    3Ag11s        3Ag1pz        3Ag1py        3Ag1px        3Ag2pz        3Ag2py        3Ag2px        3Ag3pz        3Ag3py        3Ag3px    
   53    3Ag4pz        3Ag4py        3Ag4px        3Ag5pz        3Ag5py        3Ag5px        3Ag6pz        3Ag6py        3Ag6px        3Ag7pz    
   54    3Ag7py        3Ag7px        3Ag8pz        3Ag8py        3Ag8px        3Ag9pz        3Ag9py        3Ag9px        3Ag10pz       3Ag10py   
   55    3Ag10px       3Ag1d-2       3Ag1d-1       3Ag1d0        3Ag1d+1       3Ag1d+2       3Ag2d-2       3Ag2d-1       3Ag2d0        3Ag2d+1   
   56    3Ag2d+2       3Ag3d-2       3Ag3d-1       3Ag3d0        3Ag3d+1       3Ag3d+2       3Ag4d-2       3Ag4d-1       3Ag4d0        3Ag4d+1   
   57    3Ag4d+2       3Ag5d-2       3Ag5d-1       3Ag5d0        3Ag5d+1       3Ag5d+2       3Ag6d-2       3Ag6d-1       3Ag6d0        3Ag6d+1   
   58    3Ag6d+2       3Ag7d-2       3Ag7d-1       3Ag7d0        3Ag7d+1       3Ag7d+2       3Ag8d-2       3Ag8d-1       3Ag8d0        3Ag8d+1   
   59    3Ag8d+2       3Ag9d-2       3Ag9d-1       3Ag9d0        3Ag9d+1       3Ag9d+2       3Ag1f-3       3Ag1f-2       3Ag1f-1       3Ag1f0    
   60    3Ag1f+1       3Ag1f+2       3Ag1f+3       3Ag2f-3       3Ag2f-2       3Ag2f-1       3Ag2f0        3Ag2f+1       3Ag2f+2       3Ag2f+3   
   61    3Ag3f-3       3Ag3f-2       3Ag3f-1       3Ag3f0        3Ag3f+1       3Ag3f+2       3Ag3f+3       3Ag4f-3       3Ag4f-2       3Ag4f-1   
   62    3Ag4f0        3Ag4f+1       3Ag4f+2       3Ag4f+3       3Ag5f-3       3Ag5f-2       3Ag5f-1       3Ag5f0        3Ag5f+1       3Ag5f+2   
   63    3Ag5f+3       3Ag6f-3       3Ag6f-2       3Ag6f-1       3Ag6f0        3Ag6f+1       3Ag6f+2       3Ag6f+3       3Ag7f-3       3Ag7f-2   
   64    3Ag7f-1       3Ag7f0        3Ag7f+1       3Ag7f+2       3Ag7f+3       3Ag8f-3       3Ag8f-2       3Ag8f-1       3Ag8f0        3Ag8f+1   
   65    3Ag8f+2       3Ag8f+3       3Ag1g-4       3Ag1g-3       3Ag1g-2       3Ag1g-1       3Ag1g0        3Ag1g+1       3Ag1g+2       3Ag1g+3   
   66    3Ag1g+4       3Ag2g-4       3Ag2g-3       3Ag2g-2       3Ag2g-1       3Ag2g0        3Ag2g+1       3Ag2g+2       3Ag2g+3       3Ag2g+4   
   67    3Ag3g-4       3Ag3g-3       3Ag3g-2       3Ag3g-1       3Ag3g0        3Ag3g+1       3Ag3g+2       3Ag3g+3       3Ag3g+4       3Ag4g-4   
   68    3Ag4g-3       3Ag4g-2       3Ag4g-1       3Ag4g0        3Ag4g+1       3Ag4g+2       3Ag4g+3       3Ag4g+4       3Ag5g-4       3Ag5g-3   
   69    3Ag5g-2       3Ag5g-1       3Ag5g0        3Ag5g+1       3Ag5g+2       3Ag5g+3       3Ag5g+4       3Ag6g-4       3Ag6g-3       3Ag6g-2   
   70    3Ag6g-1       3Ag6g0        3Ag6g+1       3Ag6g+2       3Ag6g+3       3Ag6g+4       3Ag1h-5       3Ag1h-4       3Ag1h-3       3Ag1h-2   
   71    3Ag1h-1       3Ag1h0        3Ag1h+1       3Ag1h+2       3Ag1h+3       3Ag1h+4       3Ag1h+5       3Ag2h-5       3Ag2h-4       3Ag2h-3   
   72    3Ag2h-2       3Ag2h-1       3Ag2h0        3Ag2h+1       3Ag2h+2       3Ag2h+3       3Ag2h+4       3Ag2h+5       3Ag3h-5       3Ag3h-4   
   73    3Ag3h-3       3Ag3h-2       3Ag3h-1       3Ag3h0        3Ag3h+1       3Ag3h+2       3Ag3h+3       3Ag3h+4       3Ag3h+5       3Ag1i-6   
   74    3Ag1i-5       3Ag1i-4       3Ag1i-3       3Ag1i-2       3Ag1i-1       3Ag1i0        3Ag1i+1       3Ag1i+2       3Ag1i+3       3Ag1i+4   
   75    3Ag1i+5       3Ag1i+6       3Ag2i-6       3Ag2i-5       3Ag2i-4       3Ag2i-3       3Ag2i-2       3Ag2i-1       3Ag2i0        3Ag2i+1   
   76    3Ag2i+2       3Ag2i+3       3Ag2i+4       3Ag2i+5       3Ag2i+6       4Ag1s         4Ag2s         4Ag3s         4Ag4s         4Ag5s     
   77    4Ag6s         4Ag7s         4Ag8s         4Ag9s         4Ag10s        4Ag11s        4Ag1pz        4Ag1py        4Ag1px        4Ag2pz    
   78    4Ag2py        4Ag2px        4Ag3pz        4Ag3py        4Ag3px        4Ag4pz        4Ag4py        4Ag4px        4Ag5pz        4Ag5py    
   79    4Ag5px        4Ag6pz        4Ag6py        4Ag6px        4Ag7pz        4Ag7py        4Ag7px        4Ag8pz        4Ag8py        4Ag8px    
   80    4Ag9pz        4Ag9py        4Ag9px        4Ag10pz       4Ag10py       4Ag10px       4Ag1d-2       4Ag1d-1       4Ag1d0        4Ag1d+1   
   81    4Ag1d+2       4Ag2d-2       4Ag2d-1       4Ag2d0        4Ag2d+1       4Ag2d+2       4Ag3d-2       4Ag3d-1       4Ag3d0        4Ag3d+1   
   82    4Ag3d+2       4Ag4d-2       4Ag4d-1       4Ag4d0        4Ag4d+1       4Ag4d+2       4Ag5d-2       4Ag5d-1       4Ag5d0        4Ag5d+1   
   83    4Ag5d+2       4Ag6d-2       4Ag6d-1       4Ag6d0        4Ag6d+1       4Ag6d+2       4Ag7d-2       4Ag7d-1       4Ag7d0        4Ag7d+1   
   84    4Ag7d+2       4Ag8d-2       4Ag8d-1       4Ag8d0        4Ag8d+1       4Ag8d+2       4Ag9d-2       4Ag9d-1       4Ag9d0        4Ag9d+1   
   85    4Ag9d+2       4Ag1f-3       4Ag1f-2       4Ag1f-1       4Ag1f0        4Ag1f+1       4Ag1f+2       4Ag1f+3       4Ag2f-3       4Ag2f-2   
   86    4Ag2f-1       4Ag2f0        4Ag2f+1       4Ag2f+2       4Ag2f+3       4Ag3f-3       4Ag3f-2       4Ag3f-1       4Ag3f0        4Ag3f+1   
   87    4Ag3f+2       4Ag3f+3       4Ag4f-3       4Ag4f-2       4Ag4f-1       4Ag4f0        4Ag4f+1       4Ag4f+2       4Ag4f+3       4Ag5f-3   
   88    4Ag5f-2       4Ag5f-1       4Ag5f0        4Ag5f+1       4Ag5f+2       4Ag5f+3       4Ag6f-3       4Ag6f-2       4Ag6f-1       4Ag6f0    
   89    4Ag6f+1       4Ag6f+2       4Ag6f+3       4Ag7f-3       4Ag7f-2       4Ag7f-1       4Ag7f0        4Ag7f+1       4Ag7f+2       4Ag7f+3   
   90    4Ag8f-3       4Ag8f-2       4Ag8f-1       4Ag8f0        4Ag8f+1       4Ag8f+2       4Ag8f+3       4Ag1g-4       4Ag1g-3       4Ag1g-2   
   91    4Ag1g-1       4Ag1g0        4Ag1g+1       4Ag1g+2       4Ag1g+3       4Ag1g+4       4Ag2g-4       4Ag2g-3       4Ag2g-2       4Ag2g-1   
   92    4Ag2g0        4Ag2g+1       4Ag2g+2       4Ag2g+3       4Ag2g+4       4Ag3g-4       4Ag3g-3       4Ag3g-2       4Ag3g-1       4Ag3g0    
   93    4Ag3g+1       4Ag3g+2       4Ag3g+3       4Ag3g+4       4Ag4g-4       4Ag4g-3       4Ag4g-2       4Ag4g-1       4Ag4g0        4Ag4g+1   
   94    4Ag4g+2       4Ag4g+3       4Ag4g+4       4Ag5g-4       4Ag5g-3       4Ag5g-2       4Ag5g-1       4Ag5g0        4Ag5g+1       4Ag5g+2   
   95    4Ag5g+3       4Ag5g+4       4Ag6g-4       4Ag6g-3       4Ag6g-2       4Ag6g-1       4Ag6g0        4Ag6g+1       4Ag6g+2       4Ag6g+3   
   96    4Ag6g+4       4Ag1h-5       4Ag1h-4       4Ag1h-3       4Ag1h-2       4Ag1h-1       4Ag1h0        4Ag1h+1       4Ag1h+2       4Ag1h+3   
   97    4Ag1h+4       4Ag1h+5       4Ag2h-5       4Ag2h-4       4Ag2h-3       4Ag2h-2       4Ag2h-1       4Ag2h0        4Ag2h+1       4Ag2h+2   
   98    4Ag2h+3       4Ag2h+4       4Ag2h+5       4Ag3h-5       4Ag3h-4       4Ag3h-3       4Ag3h-2       4Ag3h-1       4Ag3h0        4Ag3h+1   
   99    4Ag3h+2       4Ag3h+3       4Ag3h+4       4Ag3h+5       4Ag1i-6       4Ag1i-5       4Ag1i-4       4Ag1i-3       4Ag1i-2       4Ag1i-1   
  100    4Ag1i0        4Ag1i+1       4Ag1i+2       4Ag1i+3       4Ag1i+4       4Ag1i+5       4Ag1i+6       4Ag2i-6       4Ag2i-5       4Ag2i-4   
  101    4Ag2i-3       4Ag2i-2       4Ag2i-1       4Ag2i0        4Ag2i+1       4Ag2i+2       4Ag2i+3       4Ag2i+4       4Ag2i+5       4Ag2i+6   
  102    5Ag1s         5Ag2s         5Ag3s         5Ag4s         5Ag5s         5Ag6s         5Ag7s         5Ag8s         5Ag9s         5Ag10s    
  103    5Ag11s        5Ag1pz        5Ag1py        5Ag1px        5Ag2pz        5Ag2py        5Ag2px        5Ag3pz        5Ag3py        5Ag3px    
  104    5Ag4pz        5Ag4py        5Ag4px        5Ag5pz        5Ag5py        5Ag5px        5Ag6pz        5Ag6py        5Ag6px        5Ag7pz    
  105    5Ag7py        5Ag7px        5Ag8pz        5Ag8py        5Ag8px        5Ag9pz        5Ag9py        5Ag9px        5Ag10pz       5Ag10py   
  106    5Ag10px       5Ag1d-2       5Ag1d-1       5Ag1d0        5Ag1d+1       5Ag1d+2       5Ag2d-2       5Ag2d-1       5Ag2d0        5Ag2d+1   
  107    5Ag2d+2       5Ag3d-2       5Ag3d-1       5Ag3d0        5Ag3d+1       5Ag3d+2       5Ag4d-2       5Ag4d-1       5Ag4d0        5Ag4d+1   
  108    5Ag4d+2       5Ag5d-2       5Ag5d-1       5Ag5d0        5Ag5d+1       5Ag5d+2       5Ag6d-2       5Ag6d-1       5Ag6d0        5Ag6d+1   
  109    5Ag6d+2       5Ag7d-2       5Ag7d-1       5Ag7d0        5Ag7d+1       5Ag7d+2       5Ag8d-2       5Ag8d-1       5Ag8d0        5Ag8d+1   
  110    5Ag8d+2       5Ag9d-2       5Ag9d-1       5Ag9d0        5Ag9d+1       5Ag9d+2       5Ag1f-3       5Ag1f-2       5Ag1f-1       5Ag1f0    
  111    5Ag1f+1       5Ag1f+2       5Ag1f+3       5Ag2f-3       5Ag2f-2       5Ag2f-1       5Ag2f0        5Ag2f+1       5Ag2f+2       5Ag2f+3   
  112    5Ag3f-3       5Ag3f-2       5Ag3f-1       5Ag3f0        5Ag3f+1       5Ag3f+2       5Ag3f+3       5Ag4f-3       5Ag4f-2       5Ag4f-1   
  113    5Ag4f0        5Ag4f+1       5Ag4f+2       5Ag4f+3       5Ag5f-3       5Ag5f-2       5Ag5f-1       5Ag5f0        5Ag5f+1       5Ag5f+2   
  114    5Ag5f+3       5Ag6f-3       5Ag6f-2       5Ag6f-1       5Ag6f0        5Ag6f+1       5Ag6f+2       5Ag6f+3       5Ag7f-3       5Ag7f-2   
  115    5Ag7f-1       5Ag7f0        5Ag7f+1       5Ag7f+2       5Ag7f+3       5Ag8f-3       5Ag8f-2       5Ag8f-1       5Ag8f0        5Ag8f+1   
  116    5Ag8f+2       5Ag8f+3       5Ag1g-4       5Ag1g-3       5Ag1g-2       5Ag1g-1       5Ag1g0        5Ag1g+1       5Ag1g+2       5Ag1g+3   
  117    5Ag1g+4       5Ag2g-4       5Ag2g-3       5Ag2g-2       5Ag2g-1       5Ag2g0        5Ag2g+1       5Ag2g+2       5Ag2g+3       5Ag2g+4   
  118    5Ag3g-4       5Ag3g-3       5Ag3g-2       5Ag3g-1       5Ag3g0        5Ag3g+1       5Ag3g+2       5Ag3g+3       5Ag3g+4       5Ag4g-4   
  119    5Ag4g-3       5Ag4g-2       5Ag4g-1       5Ag4g0        5Ag4g+1       5Ag4g+2       5Ag4g+3       5Ag4g+4       5Ag5g-4       5Ag5g-3   
  120    5Ag5g-2       5Ag5g-1       5Ag5g0        5Ag5g+1       5Ag5g+2       5Ag5g+3       5Ag5g+4       5Ag6g-4       5Ag6g-3       5Ag6g-2   
  121    5Ag6g-1       5Ag6g0        5Ag6g+1       5Ag6g+2       5Ag6g+3       5Ag6g+4       5Ag1h-5       5Ag1h-4       5Ag1h-3       5Ag1h-2   
  122    5Ag1h-1       5Ag1h0        5Ag1h+1       5Ag1h+2       5Ag1h+3       5Ag1h+4       5Ag1h+5       5Ag2h-5       5Ag2h-4       5Ag2h-3   
  123    5Ag2h-2       5Ag2h-1       5Ag2h0        5Ag2h+1       5Ag2h+2       5Ag2h+3       5Ag2h+4       5Ag2h+5       5Ag3h-5       5Ag3h-4   
  124    5Ag3h-3       5Ag3h-2       5Ag3h-1       5Ag3h0        5Ag3h+1       5Ag3h+2       5Ag3h+3       5Ag3h+4       5Ag3h+5       5Ag1i-6   
  125    5Ag1i-5       5Ag1i-4       5Ag1i-3       5Ag1i-2       5Ag1i-1       5Ag1i0        5Ag1i+1       5Ag1i+2       5Ag1i+3       5Ag1i+4   
  126    5Ag1i+5       5Ag1i+6       5Ag2i-6       5Ag2i-5       5Ag2i-4       5Ag2i-3       5Ag2i-2       5Ag2i-1       5Ag2i0        5Ag2i+1   
  127    5Ag2i+2       5Ag2i+3       5Ag2i+4       5Ag2i+5       5Ag2i+6       6Ag1s         6Ag2s         6Ag3s         6Ag4s         6Ag5s     
  128    6Ag6s         6Ag7s         6Ag8s         6Ag9s         6Ag10s        6Ag11s        6Ag1pz        6Ag1py        6Ag1px        6Ag2pz    
  129    6Ag2py        6Ag2px        6Ag3pz        6Ag3py        6Ag3px        6Ag4pz        6Ag4py        6Ag4px        6Ag5pz        6Ag5py    
  130    6Ag5px        6Ag6pz        6Ag6py        6Ag6px        6Ag7pz        6Ag7py        6Ag7px        6Ag8pz        6Ag8py        6Ag8px    
  131    6Ag9pz        6Ag9py        6Ag9px        6Ag10pz       6Ag10py       6Ag10px       6Ag1d-2       6Ag1d-1       6Ag1d0        6Ag1d+1   
  132    6Ag1d+2       6Ag2d-2       6Ag2d-1       6Ag2d0        6Ag2d+1       6Ag2d+2       6Ag3d-2       6Ag3d-1       6Ag3d0        6Ag3d+1   
  133    6Ag3d+2       6Ag4d-2       6Ag4d-1       6Ag4d0        6Ag4d+1       6Ag4d+2       6Ag5d-2       6Ag5d-1       6Ag5d0        6Ag5d+1   
  134    6Ag5d+2       6Ag6d-2       6Ag6d-1       6Ag6d0        6Ag6d+1       6Ag6d+2       6Ag7d-2       6Ag7d-1       6Ag7d0        6Ag7d+1   
  135    6Ag7d+2       6Ag8d-2       6Ag8d-1       6Ag8d0        6Ag8d+1       6Ag8d+2       6Ag9d-2       6Ag9d-1       6Ag9d0        6Ag9d+1   
  136    6Ag9d+2       6Ag1f-3       6Ag1f-2       6Ag1f-1       6Ag1f0        6Ag1f+1       6Ag1f+2       6Ag1f+3       6Ag2f-3       6Ag2f-2   
  137    6Ag2f-1       6Ag2f0        6Ag2f+1       6Ag2f+2       6Ag2f+3       6Ag3f-3       6Ag3f-2       6Ag3f-1       6Ag3f0        6Ag3f+1   
  138    6Ag3f+2       6Ag3f+3       6Ag4f-3       6Ag4f-2       6Ag4f-1       6Ag4f0        6Ag4f+1       6Ag4f+2       6Ag4f+3       6Ag5f-3   
  139    6Ag5f-2       6Ag5f-1       6Ag5f0        6Ag5f+1       6Ag5f+2       6Ag5f+3       6Ag6f-3       6Ag6f-2       6Ag6f-1       6Ag6f0    
  140    6Ag6f+1       6Ag6f+2       6Ag6f+3       6Ag7f-3       6Ag7f-2       6Ag7f-1       6Ag7f0        6Ag7f+1       6Ag7f+2       6Ag7f+3   
  141    6Ag8f-3       6Ag8f-2       6Ag8f-1       6Ag8f0        6Ag8f+1       6Ag8f+2       6Ag8f+3       6Ag1g-4       6Ag1g-3       6Ag1g-2   
  142    6Ag1g-1       6Ag1g0        6Ag1g+1       6Ag1g+2       6Ag1g+3       6Ag1g+4       6Ag2g-4       6Ag2g-3       6Ag2g-2       6Ag2g-1   
  143    6Ag2g0        6Ag2g+1       6Ag2g+2       6Ag2g+3       6Ag2g+4       6Ag3g-4       6Ag3g-3       6Ag3g-2       6Ag3g-1       6Ag3g0    
  144    6Ag3g+1       6Ag3g+2       6Ag3g+3       6Ag3g+4       6Ag4g-4       6Ag4g-3       6Ag4g-2       6Ag4g-1       6Ag4g0        6Ag4g+1   
  145    6Ag4g+2       6Ag4g+3       6Ag4g+4       6Ag5g-4       6Ag5g-3       6Ag5g-2       6Ag5g-1       6Ag5g0        6Ag5g+1       6Ag5g+2   
  146    6Ag5g+3       6Ag5g+4       6Ag6g-4       6Ag6g-3       6Ag6g-2       6Ag6g-1       6Ag6g0        6Ag6g+1       6Ag6g+2       6Ag6g+3   
  147    6Ag6g+4       6Ag1h-5       6Ag1h-4       6Ag1h-3       6Ag1h-2       6Ag1h-1       6Ag1h0        6Ag1h+1       6Ag1h+2       6Ag1h+3   
  148    6Ag1h+4       6Ag1h+5       6Ag2h-5       6Ag2h-4       6Ag2h-3       6Ag2h-2       6Ag2h-1       6Ag2h0        6Ag2h+1       6Ag2h+2   
  149    6Ag2h+3       6Ag2h+4       6Ag2h+5       6Ag3h-5       6Ag3h-4       6Ag3h-3       6Ag3h-2       6Ag3h-1       6Ag3h0        6Ag3h+1   
  150    6Ag3h+2       6Ag3h+3       6Ag3h+4       6Ag3h+5       6Ag1i-6       6Ag1i-5       6Ag1i-4       6Ag1i-3       6Ag1i-2       6Ag1i-1   
  151    6Ag1i0        6Ag1i+1       6Ag1i+2       6Ag1i+3       6Ag1i+4       6Ag1i+5       6Ag1i+6       6Ag2i-6       6Ag2i-5       6Ag2i-4   
  152    6Ag2i-3       6Ag2i-2       6Ag2i-1       6Ag2i0        6Ag2i+1       6Ag2i+2       6Ag2i+3       6Ag2i+4       6Ag2i+5       6Ag2i+6   
 
 Maximum number of basis functions per shell:   56
 Total number of basis functions:   1530
 
 
 Fitting basis set for the correlation calculation:
 
   1  Ag bse_acvtz_mp2fit [ 13s 13p 12d 10f 8g 5h 4i | 13s 13p 12d 10f 8g 5h 4i ]
   2  Ag bse_acvtz_mp2fit [ 13s 13p 12d 10f 8g 5h 4i | 13s 13p 12d 10f 8g 5h 4i ]
   3  Ag bse_acvtz_mp2fit [ 13s 13p 12d 10f 8g 5h 4i | 13s 13p 12d 10f 8g 5h 4i ]
   4  Ag bse_acvtz_mp2fit [ 13s 13p 12d 10f 8g 5h 4i | 13s 13p 12d 10f 8g 5h 4i ]
   5  Ag bse_acvtz_mp2fit [ 13s 13p 12d 10f 8g 5h 4i | 13s 13p 12d 10f 8g 5h 4i ]
   6  Ag bse_acvtz_mp2fit [ 13s 13p 12d 10f 8g 5h 4i | 13s 13p 12d 10f 8g 5h 4i ]
 
 Basis functions:
            1             2             3             4             5             6             7             8             9            10
    0    1Ag1s         1Ag2s         1Ag3s         1Ag4s         1Ag5s         1Ag6s         1Ag7s         1Ag8s         1Ag9s         1Ag10s    
    1    1Ag11s        1Ag12s        1Ag13s        1Ag1pz        1Ag1py        1Ag1px        1Ag2pz        1Ag2py        1Ag2px        1Ag3pz    
    2    1Ag3py        1Ag3px        1Ag4pz        1Ag4py        1Ag4px        1Ag5pz        1Ag5py        1Ag5px        1Ag6pz        1Ag6py    
    3    1Ag6px        1Ag7pz        1Ag7py        1Ag7px        1Ag8pz        1Ag8py        1Ag8px        1Ag9pz        1Ag9py        1Ag9px    
    4    1Ag10pz       1Ag10py       1Ag10px       1Ag11pz       1Ag11py       1Ag11px       1Ag12pz       1Ag12py       1Ag12px       1Ag13pz   
    5    1Ag13py       1Ag13px       1Ag1d-2       1Ag1d-1       1Ag1d0        1Ag1d+1       1Ag1d+2       1Ag2d-2       1Ag2d-1       1Ag2d0    
    6    1Ag2d+1       1Ag2d+2       1Ag3d-2       1Ag3d-1       1Ag3d0        1Ag3d+1       1Ag3d+2       1Ag4d-2       1Ag4d-1       1Ag4d0    
    7    1Ag4d+1       1Ag4d+2       1Ag5d-2       1Ag5d-1       1Ag5d0        1Ag5d+1       1Ag5d+2       1Ag6d-2       1Ag6d-1       1Ag6d0    
    8    1Ag6d+1       1Ag6d+2       1Ag7d-2       1Ag7d-1       1Ag7d0        1Ag7d+1       1Ag7d+2       1Ag8d-2       1Ag8d-1       1Ag8d0    
    9    1Ag8d+1       1Ag8d+2       1Ag9d-2       1Ag9d-1       1Ag9d0        1Ag9d+1       1Ag9d+2       1Ag10d-2      1Ag10d-1      1Ag10d0   
   10    1Ag10d+1      1Ag10d+2      1Ag11d-2      1Ag11d-1      1Ag11d0       1Ag11d+1      1Ag11d+2      1Ag12d-2      1Ag12d-1      1Ag12d0   
   11    1Ag12d+1      1Ag12d+2      1Ag1f-3       1Ag1f-2       1Ag1f-1       1Ag1f0        1Ag1f+1       1Ag1f+2       1Ag1f+3       1Ag2f-3   
   12    1Ag2f-2       1Ag2f-1       1Ag2f0        1Ag2f+1       1Ag2f+2       1Ag2f+3       1Ag3f-3       1Ag3f-2       1Ag3f-1       1Ag3f0    
   13    1Ag3f+1       1Ag3f+2       1Ag3f+3       1Ag4f-3       1Ag4f-2       1Ag4f-1       1Ag4f0        1Ag4f+1       1Ag4f+2       1Ag4f+3   
   14    1Ag5f-3       1Ag5f-2       1Ag5f-1       1Ag5f0        1Ag5f+1       1Ag5f+2       1Ag5f+3       1Ag6f-3       1Ag6f-2       1Ag6f-1   
   15    1Ag6f0        1Ag6f+1       1Ag6f+2       1Ag6f+3       1Ag7f-3       1Ag7f-2       1Ag7f-1       1Ag7f0        1Ag7f+1       1Ag7f+2   
   16    1Ag7f+3       1Ag8f-3       1Ag8f-2       1Ag8f-1       1Ag8f0        1Ag8f+1       1Ag8f+2       1Ag8f+3       1Ag9f-3       1Ag9f-2   
   17    1Ag9f-1       1Ag9f0        1Ag9f+1       1Ag9f+2       1Ag9f+3       1Ag10f-3      1Ag10f-2      1Ag10f-1      1Ag10f0       1Ag10f+1  
   18    1Ag10f+2      1Ag10f+3      1Ag1g-4       1Ag1g-3       1Ag1g-2       1Ag1g-1       1Ag1g0        1Ag1g+1       1Ag1g+2       1Ag1g+3   
   19    1Ag1g+4       1Ag2g-4       1Ag2g-3       1Ag2g-2       1Ag2g-1       1Ag2g0        1Ag2g+1       1Ag2g+2       1Ag2g+3       1Ag2g+4   
   20    1Ag3g-4       1Ag3g-3       1Ag3g-2       1Ag3g-1       1Ag3g0        1Ag3g+1       1Ag3g+2       1Ag3g+3       1Ag3g+4       1Ag4g-4   
   21    1Ag4g-3       1Ag4g-2       1Ag4g-1       1Ag4g0        1Ag4g+1       1Ag4g+2       1Ag4g+3       1Ag4g+4       1Ag5g-4       1Ag5g-3   
   22    1Ag5g-2       1Ag5g-1       1Ag5g0        1Ag5g+1       1Ag5g+2       1Ag5g+3       1Ag5g+4       1Ag6g-4       1Ag6g-3       1Ag6g-2   
   23    1Ag6g-1       1Ag6g0        1Ag6g+1       1Ag6g+2       1Ag6g+3       1Ag6g+4       1Ag7g-4       1Ag7g-3       1Ag7g-2       1Ag7g-1   
   24    1Ag7g0        1Ag7g+1       1Ag7g+2       1Ag7g+3       1Ag7g+4       1Ag8g-4       1Ag8g-3       1Ag8g-2       1Ag8g-1       1Ag8g0    
   25    1Ag8g+1       1Ag8g+2       1Ag8g+3       1Ag8g+4       1Ag1h-5       1Ag1h-4       1Ag1h-3       1Ag1h-2       1Ag1h-1       1Ag1h0    
   26    1Ag1h+1       1Ag1h+2       1Ag1h+3       1Ag1h+4       1Ag1h+5       1Ag2h-5       1Ag2h-4       1Ag2h-3       1Ag2h-2       1Ag2h-1   
   27    1Ag2h0        1Ag2h+1       1Ag2h+2       1Ag2h+3       1Ag2h+4       1Ag2h+5       1Ag3h-5       1Ag3h-4       1Ag3h-3       1Ag3h-2   
   28    1Ag3h-1       1Ag3h0        1Ag3h+1       1Ag3h+2       1Ag3h+3       1Ag3h+4       1Ag3h+5       1Ag4h-5       1Ag4h-4       1Ag4h-3   
   29    1Ag4h-2       1Ag4h-1       1Ag4h0        1Ag4h+1       1Ag4h+2       1Ag4h+3       1Ag4h+4       1Ag4h+5       1Ag5h-5       1Ag5h-4   
   30    1Ag5h-3       1Ag5h-2       1Ag5h-1       1Ag5h0        1Ag5h+1       1Ag5h+2       1Ag5h+3       1Ag5h+4       1Ag5h+5       1Ag1i-6   
   31    1Ag1i-5       1Ag1i-4       1Ag1i-3       1Ag1i-2       1Ag1i-1       1Ag1i0        1Ag1i+1       1Ag1i+2       1Ag1i+3       1Ag1i+4   
   32    1Ag1i+5       1Ag1i+6       1Ag2i-6       1Ag2i-5       1Ag2i-4       1Ag2i-3       1Ag2i-2       1Ag2i-1       1Ag2i0        1Ag2i+1   
   33    1Ag2i+2       1Ag2i+3       1Ag2i+4       1Ag2i+5       1Ag2i+6       1Ag3i-6       1Ag3i-5       1Ag3i-4       1Ag3i-3       1Ag3i-2   
   34    1Ag3i-1       1Ag3i0        1Ag3i+1       1Ag3i+2       1Ag3i+3       1Ag3i+4       1Ag3i+5       1Ag3i+6       1Ag4i-6       1Ag4i-5   
   35    1Ag4i-4       1Ag4i-3       1Ag4i-2       1Ag4i-1       1Ag4i0        1Ag4i+1       1Ag4i+2       1Ag4i+3       1Ag4i+4       1Ag4i+5   
   36    1Ag4i+6       2Ag1s         2Ag2s         2Ag3s         2Ag4s         2Ag5s         2Ag6s         2Ag7s         2Ag8s         2Ag9s     
   37    2Ag10s        2Ag11s        2Ag12s        2Ag13s        2Ag1pz        2Ag1py        2Ag1px        2Ag2pz        2Ag2py        2Ag2px    
   38    2Ag3pz        2Ag3py        2Ag3px        2Ag4pz        2Ag4py        2Ag4px        2Ag5pz        2Ag5py        2Ag5px        2Ag6pz    
   39    2Ag6py        2Ag6px        2Ag7pz        2Ag7py        2Ag7px        2Ag8pz        2Ag8py        2Ag8px        2Ag9pz        2Ag9py    
   40    2Ag9px        2Ag10pz       2Ag10py       2Ag10px       2Ag11pz       2Ag11py       2Ag11px       2Ag12pz       2Ag12py       2Ag12px   
   41    2Ag13pz       2Ag13py       2Ag13px       2Ag1d-2       2Ag1d-1       2Ag1d0        2Ag1d+1       2Ag1d+2       2Ag2d-2       2Ag2d-1   
   42    2Ag2d0        2Ag2d+1       2Ag2d+2       2Ag3d-2       2Ag3d-1       2Ag3d0        2Ag3d+1       2Ag3d+2       2Ag4d-2       2Ag4d-1   
   43    2Ag4d0        2Ag4d+1       2Ag4d+2       2Ag5d-2       2Ag5d-1       2Ag5d0        2Ag5d+1       2Ag5d+2       2Ag6d-2       2Ag6d-1   
   44    2Ag6d0        2Ag6d+1       2Ag6d+2       2Ag7d-2       2Ag7d-1       2Ag7d0        2Ag7d+1       2Ag7d+2       2Ag8d-2       2Ag8d-1   
   45    2Ag8d0        2Ag8d+1       2Ag8d+2       2Ag9d-2       2Ag9d-1       2Ag9d0        2Ag9d+1       2Ag9d+2       2Ag10d-2      2Ag10d-1  
   46    2Ag10d0       2Ag10d+1      2Ag10d+2      2Ag11d-2      2Ag11d-1      2Ag11d0       2Ag11d+1      2Ag11d+2      2Ag12d-2      2Ag12d-1  
   47    2Ag12d0       2Ag12d+1      2Ag12d+2      2Ag1f-3       2Ag1f-2       2Ag1f-1       2Ag1f0        2Ag1f+1       2Ag1f+2       2Ag1f+3   
   48    2Ag2f-3       2Ag2f-2       2Ag2f-1       2Ag2f0        2Ag2f+1       2Ag2f+2       2Ag2f+3       2Ag3f-3       2Ag3f-2       2Ag3f-1   
   49    2Ag3f0        2Ag3f+1       2Ag3f+2       2Ag3f+3       2Ag4f-3       2Ag4f-2       2Ag4f-1       2Ag4f0        2Ag4f+1       2Ag4f+2   
   50    2Ag4f+3       2Ag5f-3       2Ag5f-2       2Ag5f-1       2Ag5f0        2Ag5f+1       2Ag5f+2       2Ag5f+3       2Ag6f-3       2Ag6f-2   
   51    2Ag6f-1       2Ag6f0        2Ag6f+1       2Ag6f+2       2Ag6f+3       2Ag7f-3       2Ag7f-2       2Ag7f-1       2Ag7f0        2Ag7f+1   
   52    2Ag7f+2       2Ag7f+3       2Ag8f-3       2Ag8f-2       2Ag8f-1       2Ag8f0        2Ag8f+1       2Ag8f+2       2Ag8f+3       2Ag9f-3   
   53    2Ag9f-2       2Ag9f-1       2Ag9f0        2Ag9f+1       2Ag9f+2       2Ag9f+3       2Ag10f-3      2Ag10f-2      2Ag10f-1      2Ag10f0   
   54    2Ag10f+1      2Ag10f+2      2Ag10f+3      2Ag1g-4       2Ag1g-3       2Ag1g-2       2Ag1g-1       2Ag1g0        2Ag1g+1       2Ag1g+2   
   55    2Ag1g+3       2Ag1g+4       2Ag2g-4       2Ag2g-3       2Ag2g-2       2Ag2g-1       2Ag2g0        2Ag2g+1       2Ag2g+2       2Ag2g+3   
   56    2Ag2g+4       2Ag3g-4       2Ag3g-3       2Ag3g-2       2Ag3g-1       2Ag3g0        2Ag3g+1       2Ag3g+2       2Ag3g+3       2Ag3g+4   
   57    2Ag4g-4       2Ag4g-3       2Ag4g-2       2Ag4g-1       2Ag4g0        2Ag4g+1       2Ag4g+2       2Ag4g+3       2Ag4g+4       2Ag5g-4   
   58    2Ag5g-3       2Ag5g-2       2Ag5g-1       2Ag5g0        2Ag5g+1       2Ag5g+2       2Ag5g+3       2Ag5g+4       2Ag6g-4       2Ag6g-3   
   59    2Ag6g-2       2Ag6g-1       2Ag6g0        2Ag6g+1       2Ag6g+2       2Ag6g+3       2Ag6g+4       2Ag7g-4       2Ag7g-3       2Ag7g-2   
   60    2Ag7g-1       2Ag7g0        2Ag7g+1       2Ag7g+2       2Ag7g+3       2Ag7g+4       2Ag8g-4       2Ag8g-3       2Ag8g-2       2Ag8g-1   
   61    2Ag8g0        2Ag8g+1       2Ag8g+2       2Ag8g+3       2Ag8g+4       2Ag1h-5       2Ag1h-4       2Ag1h-3       2Ag1h-2       2Ag1h-1   
   62    2Ag1h0        2Ag1h+1       2Ag1h+2       2Ag1h+3       2Ag1h+4       2Ag1h+5       2Ag2h-5       2Ag2h-4       2Ag2h-3       2Ag2h-2   
   63    2Ag2h-1       2Ag2h0        2Ag2h+1       2Ag2h+2       2Ag2h+3       2Ag2h+4       2Ag2h+5       2Ag3h-5       2Ag3h-4       2Ag3h-3   
   64    2Ag3h-2       2Ag3h-1       2Ag3h0        2Ag3h+1       2Ag3h+2       2Ag3h+3       2Ag3h+4       2Ag3h+5       2Ag4h-5       2Ag4h-4   
   65    2Ag4h-3       2Ag4h-2       2Ag4h-1       2Ag4h0        2Ag4h+1       2Ag4h+2       2Ag4h+3       2Ag4h+4       2Ag4h+5       2Ag5h-5   
   66    2Ag5h-4       2Ag5h-3       2Ag5h-2       2Ag5h-1       2Ag5h0        2Ag5h+1       2Ag5h+2       2Ag5h+3       2Ag5h+4       2Ag5h+5   
   67    2Ag1i-6       2Ag1i-5       2Ag1i-4       2Ag1i-3       2Ag1i-2       2Ag1i-1       2Ag1i0        2Ag1i+1       2Ag1i+2       2Ag1i+3   
   68    2Ag1i+4       2Ag1i+5       2Ag1i+6       2Ag2i-6       2Ag2i-5       2Ag2i-4       2Ag2i-3       2Ag2i-2       2Ag2i-1       2Ag2i0    
   69    2Ag2i+1       2Ag2i+2       2Ag2i+3       2Ag2i+4       2Ag2i+5       2Ag2i+6       2Ag3i-6       2Ag3i-5       2Ag3i-4       2Ag3i-3   
   70    2Ag3i-2       2Ag3i-1       2Ag3i0        2Ag3i+1       2Ag3i+2       2Ag3i+3       2Ag3i+4       2Ag3i+5       2Ag3i+6       2Ag4i-6   
   71    2Ag4i-5       2Ag4i-4       2Ag4i-3       2Ag4i-2       2Ag4i-1       2Ag4i0        2Ag4i+1       2Ag4i+2       2Ag4i+3       2Ag4i+4   
   72    2Ag4i+5       2Ag4i+6       3Ag1s         3Ag2s         3Ag3s         3Ag4s         3Ag5s         3Ag6s         3Ag7s         3Ag8s     
   73    3Ag9s         3Ag10s        3Ag11s        3Ag12s        3Ag13s        3Ag1pz        3Ag1py        3Ag1px        3Ag2pz        3Ag2py    
   74    3Ag2px        3Ag3pz        3Ag3py        3Ag3px        3Ag4pz        3Ag4py        3Ag4px        3Ag5pz        3Ag5py        3Ag5px    
   75    3Ag6pz        3Ag6py        3Ag6px        3Ag7pz        3Ag7py        3Ag7px        3Ag8pz        3Ag8py        3Ag8px        3Ag9pz    
   76    3Ag9py        3Ag9px        3Ag10pz       3Ag10py       3Ag10px       3Ag11pz       3Ag11py       3Ag11px       3Ag12pz       3Ag12py   
   77    3Ag12px       3Ag13pz       3Ag13py       3Ag13px       3Ag1d-2       3Ag1d-1       3Ag1d0        3Ag1d+1       3Ag1d+2       3Ag2d-2   
   78    3Ag2d-1       3Ag2d0        3Ag2d+1       3Ag2d+2       3Ag3d-2       3Ag3d-1       3Ag3d0        3Ag3d+1       3Ag3d+2       3Ag4d-2   
   79    3Ag4d-1       3Ag4d0        3Ag4d+1       3Ag4d+2       3Ag5d-2       3Ag5d-1       3Ag5d0        3Ag5d+1       3Ag5d+2       3Ag6d-2   
   80    3Ag6d-1       3Ag6d0        3Ag6d+1       3Ag6d+2       3Ag7d-2       3Ag7d-1       3Ag7d0        3Ag7d+1       3Ag7d+2       3Ag8d-2   
   81    3Ag8d-1       3Ag8d0        3Ag8d+1       3Ag8d+2       3Ag9d-2       3Ag9d-1       3Ag9d0        3Ag9d+1       3Ag9d+2       3Ag10d-2  
   82    3Ag10d-1      3Ag10d0       3Ag10d+1      3Ag10d+2      3Ag11d-2      3Ag11d-1      3Ag11d0       3Ag11d+1      3Ag11d+2      3Ag12d-2  
   83    3Ag12d-1      3Ag12d0       3Ag12d+1      3Ag12d+2      3Ag1f-3       3Ag1f-2       3Ag1f-1       3Ag1f0        3Ag1f+1       3Ag1f+2   
   84    3Ag1f+3       3Ag2f-3       3Ag2f-2       3Ag2f-1       3Ag2f0        3Ag2f+1       3Ag2f+2       3Ag2f+3       3Ag3f-3       3Ag3f-2   
   85    3Ag3f-1       3Ag3f0        3Ag3f+1       3Ag3f+2       3Ag3f+3       3Ag4f-3       3Ag4f-2       3Ag4f-1       3Ag4f0        3Ag4f+1   
   86    3Ag4f+2       3Ag4f+3       3Ag5f-3       3Ag5f-2       3Ag5f-1       3Ag5f0        3Ag5f+1       3Ag5f+2       3Ag5f+3       3Ag6f-3   
   87    3Ag6f-2       3Ag6f-1       3Ag6f0        3Ag6f+1       3Ag6f+2       3Ag6f+3       3Ag7f-3       3Ag7f-2       3Ag7f-1       3Ag7f0    
   88    3Ag7f+1       3Ag7f+2       3Ag7f+3       3Ag8f-3       3Ag8f-2       3Ag8f-1       3Ag8f0        3Ag8f+1       3Ag8f+2       3Ag8f+3   
   89    3Ag9f-3       3Ag9f-2       3Ag9f-1       3Ag9f0        3Ag9f+1       3Ag9f+2       3Ag9f+3       3Ag10f-3      3Ag10f-2      3Ag10f-1  
   90    3Ag10f0       3Ag10f+1      3Ag10f+2      3Ag10f+3      3Ag1g-4       3Ag1g-3       3Ag1g-2       3Ag1g-1       3Ag1g0        3Ag1g+1   
   91    3Ag1g+2       3Ag1g+3       3Ag1g+4       3Ag2g-4       3Ag2g-3       3Ag2g-2       3Ag2g-1       3Ag2g0        3Ag2g+1       3Ag2g+2   
   92    3Ag2g+3       3Ag2g+4       3Ag3g-4       3Ag3g-3       3Ag3g-2       3Ag3g-1       3Ag3g0        3Ag3g+1       3Ag3g+2       3Ag3g+3   
   93    3Ag3g+4       3Ag4g-4       3Ag4g-3       3Ag4g-2       3Ag4g-1       3Ag4g0        3Ag4g+1       3Ag4g+2       3Ag4g+3       3Ag4g+4   
   94    3Ag5g-4       3Ag5g-3       3Ag5g-2       3Ag5g-1       3Ag5g0        3Ag5g+1       3Ag5g+2       3Ag5g+3       3Ag5g+4       3Ag6g-4   
   95    3Ag6g-3       3Ag6g-2       3Ag6g-1       3Ag6g0        3Ag6g+1       3Ag6g+2       3Ag6g+3       3Ag6g+4       3Ag7g-4       3Ag7g-3   
   96    3Ag7g-2       3Ag7g-1       3Ag7g0        3Ag7g+1       3Ag7g+2       3Ag7g+3       3Ag7g+4       3Ag8g-4       3Ag8g-3       3Ag8g-2   
   97    3Ag8g-1       3Ag8g0        3Ag8g+1       3Ag8g+2       3Ag8g+3       3Ag8g+4       3Ag1h-5       3Ag1h-4       3Ag1h-3       3Ag1h-2   
   98    3Ag1h-1       3Ag1h0        3Ag1h+1       3Ag1h+2       3Ag1h+3       3Ag1h+4       3Ag1h+5       3Ag2h-5       3Ag2h-4       3Ag2h-3   
   99    3Ag2h-2       3Ag2h-1       3Ag2h0        3Ag2h+1       3Ag2h+2       3Ag2h+3       3Ag2h+4       3Ag2h+5       3Ag3h-5       3Ag3h-4   
  100    3Ag3h-3       3Ag3h-2       3Ag3h-1       3Ag3h0        3Ag3h+1       3Ag3h+2       3Ag3h+3       3Ag3h+4       3Ag3h+5       3Ag4h-5   
  101    3Ag4h-4       3Ag4h-3       3Ag4h-2       3Ag4h-1       3Ag4h0        3Ag4h+1       3Ag4h+2       3Ag4h+3       3Ag4h+4       3Ag4h+5   
  102    3Ag5h-5       3Ag5h-4       3Ag5h-3       3Ag5h-2       3Ag5h-1       3Ag5h0        3Ag5h+1       3Ag5h+2       3Ag5h+3       3Ag5h+4   
  103    3Ag5h+5       3Ag1i-6       3Ag1i-5       3Ag1i-4       3Ag1i-3       3Ag1i-2       3Ag1i-1       3Ag1i0        3Ag1i+1       3Ag1i+2   
  104    3Ag1i+3       3Ag1i+4       3Ag1i+5       3Ag1i+6       3Ag2i-6       3Ag2i-5       3Ag2i-4       3Ag2i-3       3Ag2i-2       3Ag2i-1   
  105    3Ag2i0        3Ag2i+1       3Ag2i+2       3Ag2i+3       3Ag2i+4       3Ag2i+5       3Ag2i+6       3Ag3i-6       3Ag3i-5       3Ag3i-4   
  106    3Ag3i-3       3Ag3i-2       3Ag3i-1       3Ag3i0        3Ag3i+1       3Ag3i+2       3Ag3i+3       3Ag3i+4       3Ag3i+5       3Ag3i+6   
  107    3Ag4i-6       3Ag4i-5       3Ag4i-4       3Ag4i-3       3Ag4i-2       3Ag4i-1       3Ag4i0        3Ag4i+1       3Ag4i+2       3Ag4i+3   
  108    3Ag4i+4       3Ag4i+5       3Ag4i+6       4Ag1s         4Ag2s         4Ag3s         4Ag4s         4Ag5s         4Ag6s         4Ag7s     
  109    4Ag8s         4Ag9s         4Ag10s        4Ag11s        4Ag12s        4Ag13s        4Ag1pz        4Ag1py        4Ag1px        4Ag2pz    
  110    4Ag2py        4Ag2px        4Ag3pz        4Ag3py        4Ag3px        4Ag4pz        4Ag4py        4Ag4px        4Ag5pz        4Ag5py    
  111    4Ag5px        4Ag6pz        4Ag6py        4Ag6px        4Ag7pz        4Ag7py        4Ag7px        4Ag8pz        4Ag8py        4Ag8px    
  112    4Ag9pz        4Ag9py        4Ag9px        4Ag10pz       4Ag10py       4Ag10px       4Ag11pz       4Ag11py       4Ag11px       4Ag12pz   
  113    4Ag12py       4Ag12px       4Ag13pz       4Ag13py       4Ag13px       4Ag1d-2       4Ag1d-1       4Ag1d0        4Ag1d+1       4Ag1d+2   
  114    4Ag2d-2       4Ag2d-1       4Ag2d0        4Ag2d+1       4Ag2d+2       4Ag3d-2       4Ag3d-1       4Ag3d0        4Ag3d+1       4Ag3d+2   
  115    4Ag4d-2       4Ag4d-1       4Ag4d0        4Ag4d+1       4Ag4d+2       4Ag5d-2       4Ag5d-1       4Ag5d0        4Ag5d+1       4Ag5d+2   
  116    4Ag6d-2       4Ag6d-1       4Ag6d0        4Ag6d+1       4Ag6d+2       4Ag7d-2       4Ag7d-1       4Ag7d0        4Ag7d+1       4Ag7d+2   
  117    4Ag8d-2       4Ag8d-1       4Ag8d0        4Ag8d+1       4Ag8d+2       4Ag9d-2       4Ag9d-1       4Ag9d0        4Ag9d+1       4Ag9d+2   
  118    4Ag10d-2      4Ag10d-1      4Ag10d0       4Ag10d+1      4Ag10d+2      4Ag11d-2      4Ag11d-1      4Ag11d0       4Ag11d+1      4Ag11d+2  
  119    4Ag12d-2      4Ag12d-1      4Ag12d0       4Ag12d+1      4Ag12d+2      4Ag1f-3       4Ag1f-2       4Ag1f-1       4Ag1f0        4Ag1f+1   
  120    4Ag1f+2       4Ag1f+3       4Ag2f-3       4Ag2f-2       4Ag2f-1       4Ag2f0        4Ag2f+1       4Ag2f+2       4Ag2f+3       4Ag3f-3   
  121    4Ag3f-2       4Ag3f-1       4Ag3f0        4Ag3f+1       4Ag3f+2       4Ag3f+3       4Ag4f-3       4Ag4f-2       4Ag4f-1       4Ag4f0    
  122    4Ag4f+1       4Ag4f+2       4Ag4f+3       4Ag5f-3       4Ag5f-2       4Ag5f-1       4Ag5f0        4Ag5f+1       4Ag5f+2       4Ag5f+3   
  123    4Ag6f-3       4Ag6f-2       4Ag6f-1       4Ag6f0        4Ag6f+1       4Ag6f+2       4Ag6f+3       4Ag7f-3       4Ag7f-2       4Ag7f-1   
  124    4Ag7f0        4Ag7f+1       4Ag7f+2       4Ag7f+3       4Ag8f-3       4Ag8f-2       4Ag8f-1       4Ag8f0        4Ag8f+1       4Ag8f+2   
  125    4Ag8f+3       4Ag9f-3       4Ag9f-2       4Ag9f-1       4Ag9f0        4Ag9f+1       4Ag9f+2       4Ag9f+3       4Ag10f-3      4Ag10f-2  
  126    4Ag10f-1      4Ag10f0       4Ag10f+1      4Ag10f+2      4Ag10f+3      4Ag1g-4       4Ag1g-3       4Ag1g-2       4Ag1g-1       4Ag1g0    
  127    4Ag1g+1       4Ag1g+2       4Ag1g+3       4Ag1g+4       4Ag2g-4       4Ag2g-3       4Ag2g-2       4Ag2g-1       4Ag2g0        4Ag2g+1   
  128    4Ag2g+2       4Ag2g+3       4Ag2g+4       4Ag3g-4       4Ag3g-3       4Ag3g-2       4Ag3g-1       4Ag3g0        4Ag3g+1       4Ag3g+2   
  129    4Ag3g+3       4Ag3g+4       4Ag4g-4       4Ag4g-3       4Ag4g-2       4Ag4g-1       4Ag4g0        4Ag4g+1       4Ag4g+2       4Ag4g+3   
  130    4Ag4g+4       4Ag5g-4       4Ag5g-3       4Ag5g-2       4Ag5g-1       4Ag5g0        4Ag5g+1       4Ag5g+2       4Ag5g+3       4Ag5g+4   
  131    4Ag6g-4       4Ag6g-3       4Ag6g-2       4Ag6g-1       4Ag6g0        4Ag6g+1       4Ag6g+2       4Ag6g+3       4Ag6g+4       4Ag7g-4   
  132    4Ag7g-3       4Ag7g-2       4Ag7g-1       4Ag7g0        4Ag7g+1       4Ag7g+2       4Ag7g+3       4Ag7g+4       4Ag8g-4       4Ag8g-3   
  133    4Ag8g-2       4Ag8g-1       4Ag8g0        4Ag8g+1       4Ag8g+2       4Ag8g+3       4Ag8g+4       4Ag1h-5       4Ag1h-4       4Ag1h-3   
  134    4Ag1h-2       4Ag1h-1       4Ag1h0        4Ag1h+1       4Ag1h+2       4Ag1h+3       4Ag1h+4       4Ag1h+5       4Ag2h-5       4Ag2h-4   
  135    4Ag2h-3       4Ag2h-2       4Ag2h-1       4Ag2h0        4Ag2h+1       4Ag2h+2       4Ag2h+3       4Ag2h+4       4Ag2h+5       4Ag3h-5   
  136    4Ag3h-4       4Ag3h-3       4Ag3h-2       4Ag3h-1       4Ag3h0        4Ag3h+1       4Ag3h+2       4Ag3h+3       4Ag3h+4       4Ag3h+5   
  137    4Ag4h-5       4Ag4h-4       4Ag4h-3       4Ag4h-2       4Ag4h-1       4Ag4h0        4Ag4h+1       4Ag4h+2       4Ag4h+3       4Ag4h+4   
  138    4Ag4h+5       4Ag5h-5       4Ag5h-4       4Ag5h-3       4Ag5h-2       4Ag5h-1       4Ag5h0        4Ag5h+1       4Ag5h+2       4Ag5h+3   
  139    4Ag5h+4       4Ag5h+5       4Ag1i-6       4Ag1i-5       4Ag1i-4       4Ag1i-3       4Ag1i-2       4Ag1i-1       4Ag1i0        4Ag1i+1   
  140    4Ag1i+2       4Ag1i+3       4Ag1i+4       4Ag1i+5       4Ag1i+6       4Ag2i-6       4Ag2i-5       4Ag2i-4       4Ag2i-3       4Ag2i-2   
  141    4Ag2i-1       4Ag2i0        4Ag2i+1       4Ag2i+2       4Ag2i+3       4Ag2i+4       4Ag2i+5       4Ag2i+6       4Ag3i-6       4Ag3i-5   
  142    4Ag3i-4       4Ag3i-3       4Ag3i-2       4Ag3i-1       4Ag3i0        4Ag3i+1       4Ag3i+2       4Ag3i+3       4Ag3i+4       4Ag3i+5   
  143    4Ag3i+6       4Ag4i-6       4Ag4i-5       4Ag4i-4       4Ag4i-3       4Ag4i-2       4Ag4i-1       4Ag4i0        4Ag4i+1       4Ag4i+2   
  144    4Ag4i+3       4Ag4i+4       4Ag4i+5       4Ag4i+6       5Ag1s         5Ag2s         5Ag3s         5Ag4s         5Ag5s         5Ag6s     
  145    5Ag7s         5Ag8s         5Ag9s         5Ag10s        5Ag11s        5Ag12s        5Ag13s        5Ag1pz        5Ag1py        5Ag1px    
  146    5Ag2pz        5Ag2py        5Ag2px        5Ag3pz        5Ag3py        5Ag3px        5Ag4pz        5Ag4py        5Ag4px        5Ag5pz    
  147    5Ag5py        5Ag5px        5Ag6pz        5Ag6py        5Ag6px        5Ag7pz        5Ag7py        5Ag7px        5Ag8pz        5Ag8py    
  148    5Ag8px        5Ag9pz        5Ag9py        5Ag9px        5Ag10pz       5Ag10py       5Ag10px       5Ag11pz       5Ag11py       5Ag11px   
  149    5Ag12pz       5Ag12py       5Ag12px       5Ag13pz       5Ag13py       5Ag13px       5Ag1d-2       5Ag1d-1       5Ag1d0        5Ag1d+1   
  150    5Ag1d+2       5Ag2d-2       5Ag2d-1       5Ag2d0        5Ag2d+1       5Ag2d+2       5Ag3d-2       5Ag3d-1       5Ag3d0        5Ag3d+1   
  151    5Ag3d+2       5Ag4d-2       5Ag4d-1       5Ag4d0        5Ag4d+1       5Ag4d+2       5Ag5d-2       5Ag5d-1       5Ag5d0        5Ag5d+1   
  152    5Ag5d+2       5Ag6d-2       5Ag6d-1       5Ag6d0        5Ag6d+1       5Ag6d+2       5Ag7d-2       5Ag7d-1       5Ag7d0        5Ag7d+1   
  153    5Ag7d+2       5Ag8d-2       5Ag8d-1       5Ag8d0        5Ag8d+1       5Ag8d+2       5Ag9d-2       5Ag9d-1       5Ag9d0        5Ag9d+1   
  154    5Ag9d+2       5Ag10d-2      5Ag10d-1      5Ag10d0       5Ag10d+1      5Ag10d+2      5Ag11d-2      5Ag11d-1      5Ag11d0       5Ag11d+1  
  155    5Ag11d+2      5Ag12d-2      5Ag12d-1      5Ag12d0       5Ag12d+1      5Ag12d+2      5Ag1f-3       5Ag1f-2       5Ag1f-1       5Ag1f0    
  156    5Ag1f+1       5Ag1f+2       5Ag1f+3       5Ag2f-3       5Ag2f-2       5Ag2f-1       5Ag2f0        5Ag2f+1       5Ag2f+2       5Ag2f+3   
  157    5Ag3f-3       5Ag3f-2       5Ag3f-1       5Ag3f0        5Ag3f+1       5Ag3f+2       5Ag3f+3       5Ag4f-3       5Ag4f-2       5Ag4f-1   
  158    5Ag4f0        5Ag4f+1       5Ag4f+2       5Ag4f+3       5Ag5f-3       5Ag5f-2       5Ag5f-1       5Ag5f0        5Ag5f+1       5Ag5f+2   
  159    5Ag5f+3       5Ag6f-3       5Ag6f-2       5Ag6f-1       5Ag6f0        5Ag6f+1       5Ag6f+2       5Ag6f+3       5Ag7f-3       5Ag7f-2   
  160    5Ag7f-1       5Ag7f0        5Ag7f+1       5Ag7f+2       5Ag7f+3       5Ag8f-3       5Ag8f-2       5Ag8f-1       5Ag8f0        5Ag8f+1   
  161    5Ag8f+2       5Ag8f+3       5Ag9f-3       5Ag9f-2       5Ag9f-1       5Ag9f0        5Ag9f+1       5Ag9f+2       5Ag9f+3       5Ag10f-3  
  162    5Ag10f-2      5Ag10f-1      5Ag10f0       5Ag10f+1      5Ag10f+2      5Ag10f+3      5Ag1g-4       5Ag1g-3       5Ag1g-2       5Ag1g-1   
  163    5Ag1g0        5Ag1g+1       5Ag1g+2       5Ag1g+3       5Ag1g+4       5Ag2g-4       5Ag2g-3       5Ag2g-2       5Ag2g-1       5Ag2g0    
  164    5Ag2g+1       5Ag2g+2       5Ag2g+3       5Ag2g+4       5Ag3g-4       5Ag3g-3       5Ag3g-2       5Ag3g-1       5Ag3g0        5Ag3g+1   
  165    5Ag3g+2       5Ag3g+3       5Ag3g+4       5Ag4g-4       5Ag4g-3       5Ag4g-2       5Ag4g-1       5Ag4g0        5Ag4g+1       5Ag4g+2   
  166    5Ag4g+3       5Ag4g+4       5Ag5g-4       5Ag5g-3       5Ag5g-2       5Ag5g-1       5Ag5g0        5Ag5g+1       5Ag5g+2       5Ag5g+3   
  167    5Ag5g+4       5Ag6g-4       5Ag6g-3       5Ag6g-2       5Ag6g-1       5Ag6g0        5Ag6g+1       5Ag6g+2       5Ag6g+3       5Ag6g+4   
  168    5Ag7g-4       5Ag7g-3       5Ag7g-2       5Ag7g-1       5Ag7g0        5Ag7g+1       5Ag7g+2       5Ag7g+3       5Ag7g+4       5Ag8g-4   
  169    5Ag8g-3       5Ag8g-2       5Ag8g-1       5Ag8g0        5Ag8g+1       5Ag8g+2       5Ag8g+3       5Ag8g+4       5Ag1h-5       5Ag1h-4   
  170    5Ag1h-3       5Ag1h-2       5Ag1h-1       5Ag1h0        5Ag1h+1       5Ag1h+2       5Ag1h+3       5Ag1h+4       5Ag1h+5       5Ag2h-5   
  171    5Ag2h-4       5Ag2h-3       5Ag2h-2       5Ag2h-1       5Ag2h0        5Ag2h+1       5Ag2h+2       5Ag2h+3       5Ag2h+4       5Ag2h+5   
  172    5Ag3h-5       5Ag3h-4       5Ag3h-3       5Ag3h-2       5Ag3h-1       5Ag3h0        5Ag3h+1       5Ag3h+2       5Ag3h+3       5Ag3h+4   
  173    5Ag3h+5       5Ag4h-5       5Ag4h-4       5Ag4h-3       5Ag4h-2       5Ag4h-1       5Ag4h0        5Ag4h+1       5Ag4h+2       5Ag4h+3   
  174    5Ag4h+4       5Ag4h+5       5Ag5h-5       5Ag5h-4       5Ag5h-3       5Ag5h-2       5Ag5h-1       5Ag5h0        5Ag5h+1       5Ag5h+2   
  175    5Ag5h+3       5Ag5h+4       5Ag5h+5       5Ag1i-6       5Ag1i-5       5Ag1i-4       5Ag1i-3       5Ag1i-2       5Ag1i-1       5Ag1i0    
  176    5Ag1i+1       5Ag1i+2       5Ag1i+3       5Ag1i+4       5Ag1i+5       5Ag1i+6       5Ag2i-6       5Ag2i-5       5Ag2i-4       5Ag2i-3   
  177    5Ag2i-2       5Ag2i-1       5Ag2i0        5Ag2i+1       5Ag2i+2       5Ag2i+3       5Ag2i+4       5Ag2i+5       5Ag2i+6       5Ag3i-6   
  178    5Ag3i-5       5Ag3i-4       5Ag3i-3       5Ag3i-2       5Ag3i-1       5Ag3i0        5Ag3i+1       5Ag3i+2       5Ag3i+3       5Ag3i+4   
  179    5Ag3i+5       5Ag3i+6       5Ag4i-6       5Ag4i-5       5Ag4i-4       5Ag4i-3       5Ag4i-2       5Ag4i-1       5Ag4i0        5Ag4i+1   
  180    5Ag4i+2       5Ag4i+3       5Ag4i+4       5Ag4i+5       5Ag4i+6       6Ag1s         6Ag2s         6Ag3s         6Ag4s         6Ag5s     
  181    6Ag6s         6Ag7s         6Ag8s         6Ag9s         6Ag10s        6Ag11s        6Ag12s        6Ag13s        6Ag1pz        6Ag1py    
  182    6Ag1px        6Ag2pz        6Ag2py        6Ag2px        6Ag3pz        6Ag3py        6Ag3px        6Ag4pz        6Ag4py        6Ag4px    
  183    6Ag5pz        6Ag5py        6Ag5px        6Ag6pz        6Ag6py        6Ag6px        6Ag7pz        6Ag7py        6Ag7px        6Ag8pz    
  184    6Ag8py        6Ag8px        6Ag9pz        6Ag9py        6Ag9px        6Ag10pz       6Ag10py       6Ag10px       6Ag11pz       6Ag11py   
  185    6Ag11px       6Ag12pz       6Ag12py       6Ag12px       6Ag13pz       6Ag13py       6Ag13px       6Ag1d-2       6Ag1d-1       6Ag1d0    
  186    6Ag1d+1       6Ag1d+2       6Ag2d-2       6Ag2d-1       6Ag2d0        6Ag2d+1       6Ag2d+2       6Ag3d-2       6Ag3d-1       6Ag3d0    
  187    6Ag3d+1       6Ag3d+2       6Ag4d-2       6Ag4d-1       6Ag4d0        6Ag4d+1       6Ag4d+2       6Ag5d-2       6Ag5d-1       6Ag5d0    
  188    6Ag5d+1       6Ag5d+2       6Ag6d-2       6Ag6d-1       6Ag6d0        6Ag6d+1       6Ag6d+2       6Ag7d-2       6Ag7d-1       6Ag7d0    
  189    6Ag7d+1       6Ag7d+2       6Ag8d-2       6Ag8d-1       6Ag8d0        6Ag8d+1       6Ag8d+2       6Ag9d-2       6Ag9d-1       6Ag9d0    
  190    6Ag9d+1       6Ag9d+2       6Ag10d-2      6Ag10d-1      6Ag10d0       6Ag10d+1      6Ag10d+2      6Ag11d-2      6Ag11d-1      6Ag11d0   
  191    6Ag11d+1      6Ag11d+2      6Ag12d-2      6Ag12d-1      6Ag12d0       6Ag12d+1      6Ag12d+2      6Ag1f-3       6Ag1f-2       6Ag1f-1   
  192    6Ag1f0        6Ag1f+1       6Ag1f+2       6Ag1f+3       6Ag2f-3       6Ag2f-2       6Ag2f-1       6Ag2f0        6Ag2f+1       6Ag2f+2   
  193    6Ag2f+3       6Ag3f-3       6Ag3f-2       6Ag3f-1       6Ag3f0        6Ag3f+1       6Ag3f+2       6Ag3f+3       6Ag4f-3       6Ag4f-2   
  194    6Ag4f-1       6Ag4f0        6Ag4f+1       6Ag4f+2       6Ag4f+3       6Ag5f-3       6Ag5f-2       6Ag5f-1       6Ag5f0        6Ag5f+1   
  195    6Ag5f+2       6Ag5f+3       6Ag6f-3       6Ag6f-2       6Ag6f-1       6Ag6f0        6Ag6f+1       6Ag6f+2       6Ag6f+3       6Ag7f-3   
  196    6Ag7f-2       6Ag7f-1       6Ag7f0        6Ag7f+1       6Ag7f+2       6Ag7f+3       6Ag8f-3       6Ag8f-2       6Ag8f-1       6Ag8f0    
  197    6Ag8f+1       6Ag8f+2       6Ag8f+3       6Ag9f-3       6Ag9f-2       6Ag9f-1       6Ag9f0        6Ag9f+1       6Ag9f+2       6Ag9f+3   
  198    6Ag10f-3      6Ag10f-2      6Ag10f-1      6Ag10f0       6Ag10f+1      6Ag10f+2      6Ag10f+3      6Ag1g-4       6Ag1g-3       6Ag1g-2   
  199    6Ag1g-1       6Ag1g0        6Ag1g+1       6Ag1g+2       6Ag1g+3       6Ag1g+4       6Ag2g-4       6Ag2g-3       6Ag2g-2       6Ag2g-1   
  200    6Ag2g0        6Ag2g+1       6Ag2g+2       6Ag2g+3       6Ag2g+4       6Ag3g-4       6Ag3g-3       6Ag3g-2       6Ag3g-1       6Ag3g0    
  201    6Ag3g+1       6Ag3g+2       6Ag3g+3       6Ag3g+4       6Ag4g-4       6Ag4g-3       6Ag4g-2       6Ag4g-1       6Ag4g0        6Ag4g+1   
  202    6Ag4g+2       6Ag4g+3       6Ag4g+4       6Ag5g-4       6Ag5g-3       6Ag5g-2       6Ag5g-1       6Ag5g0        6Ag5g+1       6Ag5g+2   
  203    6Ag5g+3       6Ag5g+4       6Ag6g-4       6Ag6g-3       6Ag6g-2       6Ag6g-1       6Ag6g0        6Ag6g+1       6Ag6g+2       6Ag6g+3   
  204    6Ag6g+4       6Ag7g-4       6Ag7g-3       6Ag7g-2       6Ag7g-1       6Ag7g0        6Ag7g+1       6Ag7g+2       6Ag7g+3       6Ag7g+4   
  205    6Ag8g-4       6Ag8g-3       6Ag8g-2       6Ag8g-1       6Ag8g0        6Ag8g+1       6Ag8g+2       6Ag8g+3       6Ag8g+4       6Ag1h-5   
  206    6Ag1h-4       6Ag1h-3       6Ag1h-2       6Ag1h-1       6Ag1h0        6Ag1h+1       6Ag1h+2       6Ag1h+3       6Ag1h+4       6Ag1h+5   
  207    6Ag2h-5       6Ag2h-4       6Ag2h-3       6Ag2h-2       6Ag2h-1       6Ag2h0        6Ag2h+1       6Ag2h+2       6Ag2h+3       6Ag2h+4   
  208    6Ag2h+5       6Ag3h-5       6Ag3h-4       6Ag3h-3       6Ag3h-2       6Ag3h-1       6Ag3h0        6Ag3h+1       6Ag3h+2       6Ag3h+3   
  209    6Ag3h+4       6Ag3h+5       6Ag4h-5       6Ag4h-4       6Ag4h-3       6Ag4h-2       6Ag4h-1       6Ag4h0        6Ag4h+1       6Ag4h+2   
  210    6Ag4h+3       6Ag4h+4       6Ag4h+5       6Ag5h-5       6Ag5h-4       6Ag5h-3       6Ag5h-2       6Ag5h-1       6Ag5h0        6Ag5h+1   
  211    6Ag5h+2       6Ag5h+3       6Ag5h+4       6Ag5h+5       6Ag1i-6       6Ag1i-5       6Ag1i-4       6Ag1i-3       6Ag1i-2       6Ag1i-1   
  212    6Ag1i0        6Ag1i+1       6Ag1i+2       6Ag1i+3       6Ag1i+4       6Ag1i+5       6Ag1i+6       6Ag2i-6       6Ag2i-5       6Ag2i-4   
  213    6Ag2i-3       6Ag2i-2       6Ag2i-1       6Ag2i0        6Ag2i+1       6Ag2i+2       6Ag2i+3       6Ag2i+4       6Ag2i+5       6Ag2i+6   
  214    6Ag3i-6       6Ag3i-5       6Ag3i-4       6Ag3i-3       6Ag3i-2       6Ag3i-1       6Ag3i0        6Ag3i+1       6Ag3i+2       6Ag3i+3   
  215    6Ag3i+4       6Ag3i+5       6Ag3i+6       6Ag4i-6       6Ag4i-5       6Ag4i-4       6Ag4i-3       6Ag4i-2       6Ag4i-1       6Ag4i0    
  216    6Ag4i+1       6Ag4i+2       6Ag4i+3       6Ag4i+4       6Ag4i+5       6Ag4i+6   
 
 Maximum number of basis functions per shell:   72
 Total number of basis functions:   2166
 
 
 Effective core potentials:
 
   1  Ag mcdhf-ecp-28        
   2  Ag mcdhf-ecp-28        
   3  Ag mcdhf-ecp-28        
   4  Ag mcdhf-ecp-28        
   5  Ag mcdhf-ecp-28        
   6  Ag mcdhf-ecp-28        
 
 Character table for point group C1:
 
          E  
    A     1
 
 Number of basis functions per irrep:
    A     732
 
 
 Calculation of overlap integrals...
 CPU time [min]:     0.123                   Wall time [min]:     0.007
 
 Calculation of the square root of the overlap matrix...
 Minimum eigenvalue of the overlap matrix: 0.143289E-04
 CPU time [min]:     0.199                   Wall time [min]:     0.009
 
 Calculation of kinetic energy integrals...
 CPU time [min]:     0.205                   Wall time [min]:     0.009
 Calculation of dipole moment integrals...
 CPU time [min]:     0.215                   Wall time [min]:     0.010
 Calculation of nuclear attraction integrals...
 CPU time [min]:     0.223                   Wall time [min]:     0.010
 Calculation of core potential integrals...
 CPU time [min]:     1.822                   Wall time [min]:     1.497
 
 Calculation of prescreening integrals...
 CPU time [min]:    19.826                   Wall time [min]:     2.020
 
 Calculation of two-center Coulomb integrals...
   1% done.
  12% done.
  23% done.
  35% done.
  48% done.
  63% done.
  74% done.
  86% done.
  97% done.
 100% done.
 CPU time [min]:    19.845                   Wall time [min]:     2.021
 
 Cholesky decomposition of the two-center matrix...
 Reciprocal of the condition number:  0.144522E-05
 CPU time [min]:    19.936                   Wall time [min]:     2.023
 

 ************************ 2023-02-27 00:40:35 *************************
 Executing scf...

 @scfsetup: integrals calculated directly
            mrcc/integ direct run
 @scfsetup: calculating on full matrices
            not using symmetry adapted basis
 @scfsetup: diis switched on
 @scfsetup: number of steps to extrapolate from  10
 @scfsetup: tolerance in energy deviation    0.100000E-05
            tolerance in density deviation    0.100000E-06
 @scfsetup: maximum number of iterations:  50
 @scfsetup: restricted closed shell hf calc
 @scfsetup: restarting scf from MOCOEF file
 @scfsetup: occupation set:
            from initial orbitals
 @scfsetup: Parameter-set for SCF acceleration: difficult
 @scfsetup: diis runs from iteration:   2
 @scfsetup: diis runs to iteration:  50
 @scfsetup: diis runs in every iteration
 @scfsetup: diiswatch is disabled                   
 @scfsetup: diis dtol criteria to switch on:      0.0000E+00
           (or the iteration number below is reached)
 @scfsetup: damping is turned off.
 @scfsetup: dynamic level shifting
            tolarance in HOMO-LUMO gap:  0.200
            tolarance in density deviation:     0.0000E+00
            iteration step criteria to turn level shifting off: 8
 Allocation of 220.0 Gbytes of memory...
 ======================================================================
 ITERATION STEP   1
 CPU time [min]:     0.044                   Wall time [min]:     0.005
 

 SCF control                  : initial
 Damping factor/level shift   : 0.000/0.200
 DIIS [start/end/frequency]   :   2 / 50 /  1

 Constructing Fock-matrix...
 
 Pipek-Mezey localization...
 Step  Convergence
   1  47.217212488552
   2  14.810172936485
   3   7.624744248667
   4   2.513776337749
   5   0.732944579095
   6   0.807069013555
   7   0.161737145780
   8   0.011052117810
   9   0.000894018481
  10   0.000085374567
  11   0.000033914495
  12   0.000046214211
  13   0.000048807322
  14   0.000045736654
  15   0.000027060375
  16   0.000037997193
  17   0.000041100650
  18   0.000023665891
  19   0.000033241454
  20   0.000035879427
  21   0.000033279099
  22   0.000031669572
  23   0.000018633883
  24   0.000026042908
  25   0.000017435492
  26   0.000015899007
  27   0.000023738386
  28   0.000024249378
  29   0.000022660218
  30   0.000013331926
  31   0.000018570004
  32   0.000019942689
  33   0.000018406812
  34   0.000010834928
  35   0.000015068455
  36   0.000016164514
  37   0.000014903156
  38   0.000008764562
  39   0.000008104128
  40   0.000012082184
  41   0.000012340027
  42   0.000011485151
  43   0.000010841990
  44   0.000010219315
  45   0.000005995127
  46   0.000008317788
  47   0.000005552032
  48   0.000007504660
  49   0.000008064834
  50   0.000007406745
  51   0.000006994269
  52   0.000004098258
  53   0.000003783868
  54   0.000005624882
  55   0.000003571817
  56   0.000004879158
  57   0.000005230235
  58   0.000004805486
  59   0.000004532463
  60   0.000004265319
  61   0.000004012801
  62   0.000003775365
  63   0.000002213119
  64   0.000003063027
  65   0.000002044456
  66   0.000002755980
  67   0.000002957264
  68   0.000002712854
  69   0.000002557990
  70   0.000001499828
  71   0.000002073566
  72   0.000001383750
  73   0.000001254422
  74   0.000001855390
  75   0.000001882305
  76   0.000001748126
  77   0.000001645949
  78   0.000001548115
  79   0.000001455947
  80   0.000000853685
 CPU time [min]:     0.240                   Wall time [min]:     0.011
 
 Constructing local fitting domains...
 Maximum number of atoms in fitting domains:    6
 Average number of atoms in fitting domains:    6.0
 
 First step of Coulomb + first step of exchange...
 Exchange contribution is evaluated for MOs 1 to 57.
   1% done.
  12% done.
  25% done.
  40% done.
  58% done.
  69% done.
  86% done.
 100% done.
 CPU time [min]:     2.558                   Wall time [min]:     0.075
 
 Fitting and assembly step of exchange...
 CPU time [min]:     2.736                   Wall time [min]:     0.080
 
 Second step of Coulomb...
   1% done.
  12% done.
  25% done.
  40% done.
  58% done.
  69% done.
  86% done.
 100% done.
 CPU time [min]:     3.498                   Wall time [min]:     0.102
 
 Gradient norm:      2.2175E+01
 RMS of [F,P]:                                         0.00104880774633
 RMS of difference density:                            0.00131025775449
 Gap [au]:  0.21229135
 ALPHA OCC:  57
 BETA  OCC:  57
 
 ***HARTREE-FOCK ENERGY IN STEP   1 IS       -876.3365491621566434 [AU]
 ======================================================================
 ITERATION STEP   2
 CPU time [min]:     3.567                   Wall time [min]:     0.104
 

 SCF control                  : diis
 Damping factor/level shift   : 0.000/0.000
 DIIS [start/end/frequency]   :   2 / 50 /  1

 Constructing Fock-matrix...
 
 Pipek-Mezey localization...
 Step  Convergence
   1   8.275780340312
   2   6.477269607736
   3   2.187431667236
   4   0.144568483887
   5   0.001877743315
   6   0.000032370965
   7   0.000001614553
   8   0.000000318312
 CPU time [min]:     3.613                   Wall time [min]:     0.105
 
 Constructing local fitting domains...
 Maximum number of atoms in fitting domains:    6
 Average number of atoms in fitting domains:    6.0
 
 First step of Coulomb + first step of exchange...
[...]
 tol*100>norm                   533  1.387830249247259E-003
 tol*100>norm                   534  1.205768669108067E-003
 tol*100>norm                   535  2.377621243345684E-003
dropped smallnorm   592   613   6.23256171E-06
dropped smallnorm   603   625   2.89734167E-05
dropped smallnorm   603   626   2.44102810E-05
dropped smallnorm   603   627   3.23716680E-05
 tol*100>norm                   653  2.299205796938812E-003
 tol*100>norm                   654  1.217164968717682E-003
 tol*100>norm                   655  1.387002818313182E-003
 tol*100>norm                   656  1.995785521955036E-003
 tol*100>norm                   657  2.376483018891041E-003
 Number of Cholesky vectors:      7
 MP2 energy in LIS [au]:         -0.092293880856
 Correction for frozen LNO [au]: -0.001901150205     (2.018%)
 Number of NAFs:               1041  (48.06%)
 CPU time [min]:  1887.297                   Wall time [min]:    67.826
 

 Direct DF-CCSD(T) calculation
 
 Convergence criterion:  1.0E-05
 
 Number of occupied/virtual/auxiliary orbitals:    50   272  1041
   5155.35 MB is the minimal memory requirement for (T)
   3195.08 MB is the minimal memory requirement for CCSD
 
 MP2 correlation energy [au]:       -3.481474060315
 
 LMP2 domain correlation energy contribution [au]:       -0.092292756369
 
 CPU time [min]:  1888.785                   Wall time [min]:    68.100
 
 
 Starting CCSD iterations...
 
                     Residual norm       Correlation Energy
 Iteration  1        0.557838908181       -3.065088827932
 Iteration  2        0.209427558075       -3.186068295991
 Iteration  3        0.044841186949       -3.205835329524
 Iteration  4        0.020911108366       -3.203815011749
 Iteration  5        0.007698107729       -3.200868135697
 Iteration  6        0.003423535465       -3.200747121487
 Iteration  7        0.001577061363       -3.201238995086
 Iteration  8        0.000747986033       -3.201270677207
 Iteration  9        0.000317241716       -3.201228214058
 Iteration 10        0.000166003565       -3.201233399116
 Iteration 11        0.000070306698       -3.201234966116
 
 CCSD iteration has converged in 11 steps.
    24026.83 MB memory was utilized by CCSD
 
 T1 diagnostic:      1.846E-02            D1 diagnostic:      7.229E-02
 
 T1 contribution [au]:                         0.000000000000
 CCSD correlation energy [au]:                -0.080069375944
 
 CPU time [min]:  2219.946                   Wall time [min]:    80.914
 
 Calculation of (T) correction...
 
 Laplace threshold, nquadmin:  1.00E-02   3
 Number of quadrature points:    3
 
    13235.61 MB memory is utilized for (T)

 0%       25%       50%       75%       100%
 |---------|---------|---------|---------| 
 
 (T) correction [au]:                   -0.008189673241
 CCSD(T) correlation energy [au]:       -0.088259049185
 
 CPU time [min]:  2627.870                   Wall time [min]:    93.014
 
 MO:    56
 Number of atoms in domain:       6
 Number of atomic orbitals:     732
 Number of atoms for local DF:    6
 Number of fitting functions:  2166 (100.00%)
 Number of occupied orbitals:    57
 Number of virtual  orbitals:   675
 Number of Cholesky vectors:      9
 MP2 energy in ED [au]:          -0.094145566517
 Number of occupied LNOs:        50  (87.72%)
 Number of virtual  LNOs:       271  (40.15%)
dropped smallnorm     2     3   5.30894732E-06
dropped smallnorm    13    15   2.64092942E-05
dropped smallnorm    13    16   1.63876225E-05
dropped smallnorm    13    17   1.63822308E-05
 tol*100>norm                    43  4.712698805313864E-003
 tol*100>norm                    44  2.081985078402177E-003
 tol*100>norm                    45  1.579462849571309E-003
 tol*100>norm                    46  2.074969405967825E-003
 tol*100>norm                    47  4.710813276189595E-003
dropped smallnorm   120   125   6.24565802E-06
dropped smallnorm   131   137   2.89710306E-05
dropped smallnorm   131   138   3.06413773E-05
dropped smallnorm   131   139   2.60525552E-05
 tol*100>norm                   165  2.354169046489430E-003
 tol*100>norm                   166  1.836469469419433E-003
 tol*100>norm                   167  1.389520129352675E-003
 tol*100>norm                   168  1.385869813572737E-003
 tol*100>norm                   169  2.299710678328433E-003
dropped smallnorm   238   247   6.24516552E-06
dropped smallnorm   249   259   2.89737264E-05
dropped smallnorm   249   260   2.85813937E-05
dropped smallnorm   249   261   2.81225217E-05
 tol*100>norm                   287  2.383795771811924E-003
 tol*100>norm                   288  1.633764162611290E-003
 tol*100>norm                   289  1.388547325308881E-003
 tol*100>norm                   290  1.585408804132606E-003
 tol*100>norm                   291  2.273094397394291E-003
dropped smallnorm   356   369   6.23978225E-06
dropped smallnorm   367   381   2.89747233E-05
dropped smallnorm   367   382   2.56404374E-05
dropped smallnorm   367   383   3.11014933E-05
 tol*100>norm                   409  2.339808822010383E-003
 tol*100>norm                   410  1.340871319612541E-003
 tol*100>norm                   411  1.386270931587410E-003
 tol*100>norm                   412  1.873617274249620E-003
 tol*100>norm                   413  2.327306987324970E-003
dropped smallnorm   474   491   6.25257984E-06
dropped smallnorm   485   503   2.89724894E-05
dropped smallnorm   485   504   3.24932419E-05
dropped smallnorm   485   505   2.41581076E-05
 tol*100>norm                   531  2.271952389572317E-003
 tol*100>norm                   532  2.022357606599919E-003
 tol*100>norm                   533  1.387830249247259E-003
 tol*100>norm                   534  1.205768669108067E-003
 tol*100>norm                   535  2.377621243345685E-003
dropped smallnorm   592   613   6.23256171E-06
dropped smallnorm   603   625   2.89734167E-05
dropped smallnorm   603   626   2.44102810E-05
dropped smallnorm   603   627   3.23716680E-05
 tol*100>norm                   653  2.299205796938812E-003
 tol*100>norm                   654  1.217164968717682E-003
 tol*100>norm                   655  1.387002818313182E-003
 tol*100>norm                   656  1.995785521955033E-003
 tol*100>norm                   657  2.376483018891042E-003
 Number of Cholesky vectors:      7
 MP2 energy in LIS [au]:         -0.092226408073
 Correction for frozen LNO [au]: -0.001919158444     (2.039%)
 Number of NAFs:               1038  (47.92%)
 CPU time [min]:  2670.630                   Wall time [min]:    94.679
 

 Direct DF-CCSD(T) calculation
 
 Convergence criterion:  1.0E-05
 
 Number of occupied/virtual/auxiliary orbitals:    50   271  1038
   5109.01 MB is the minimal memory requirement for (T)
   3169.76 MB is the minimal memory requirement for CCSD
 
 MP2 correlation energy [au]:       -3.471449465958
 
 LMP2 domain correlation energy contribution [au]:       -0.092225252016
 
 CPU time [min]:  2672.210                   Wall time [min]:    94.958
 
 
 Starting CCSD iterations...
 
                     Residual norm       Correlation Energy
 Iteration  1        0.557321509183       -3.055998230424
 Iteration  2        0.209108279055       -3.176800018542
 Iteration  3        0.044817873636       -3.196464283730
 Iteration  4        0.020886941574       -3.194453209654
 Iteration  5        0.007684604055       -3.191530296047
 Iteration  6        0.003422119983       -3.191411018585
 Iteration  7        0.001573855322       -3.191899629761
 Iteration  8        0.000747682227       -3.191930342873
 Iteration  9        0.000317450395       -3.191887786716
 Iteration 10        0.000166102969       -3.191892882995
 Iteration 11        0.000070311705       -3.191894515899
 
 CCSD iteration has converged in 11 steps.
    23695.68 MB memory was utilized by CCSD
 
 T1 diagnostic:      1.846E-02            D1 diagnostic:      7.225E-02
 
 T1 contribution [au]:                         0.000000000000
 CCSD correlation energy [au]:                -0.080021500826
 
 CPU time [min]:  3012.199                   Wall time [min]:   107.988
 
 Calculation of (T) correction...
 
 Laplace threshold, nquadmin:  1.00E-02   3
 Number of quadrature points:    3
 
    13104.75 MB memory is utilized for (T)

 0%       25%       50%       75%       100%
 |---------|---------|---------|---------| 
 
 (T) correction [au]:                   -0.008194840852
 CCSD(T) correlation energy [au]:       -0.088216341678
 
 CPU time [min]:  3438.889                   Wall time [min]:   120.626
 
 MO:    57
 Number of atoms in domain:       6
 Number of atomic orbitals:     732
 Number of atoms for local DF:    6
 Number of fitting functions:  2166 (100.00%)
 Number of occupied orbitals:    57
 Number of virtual  orbitals:   675
 Number of Cholesky vectors:      9
 MP2 energy in ED [au]:          -0.094006510517
 Number of occupied LNOs:        48  (84.21%)
 Number of virtual  LNOs:       268  (39.70%)
dropped smallnorm     2     3   5.30894732E-06
dropped smallnorm    13    15   2.64092942E-05
dropped smallnorm    13    16   1.63876225E-05
dropped smallnorm    13    17   1.63822308E-05
 tol*100>norm                    43  4.712698805313861E-003
 tol*100>norm                    44  2.081985078402179E-003
 tol*100>norm                    45  1.579462849571308E-003
 tol*100>norm                    46  2.074969405967824E-003
 tol*100>norm                    47  4.710813276189595E-003
dropped smallnorm   120   125   6.24565802E-06
dropped smallnorm   131   137   2.89710306E-05
dropped smallnorm   131   138   3.06413773E-05
dropped smallnorm   131   139   2.60525552E-05
 tol*100>norm                   165  2.354169046489430E-003
 tol*100>norm                   166  1.836469469419433E-003
 tol*100>norm                   167  1.389520129352674E-003
 tol*100>norm                   168  1.385869813572737E-003
 tol*100>norm                   169  2.299710678328433E-003
dropped smallnorm   238   247   6.24516552E-06
dropped smallnorm   249   259   2.89737264E-05
dropped smallnorm   249   260   2.85813937E-05
dropped smallnorm   249   261   2.81225217E-05
 tol*100>norm                   287  2.383795771811924E-003
 tol*100>norm                   288  1.633764162611289E-003
 tol*100>norm                   289  1.388547325308881E-003
 tol*100>norm                   290  1.585408804132606E-003
 tol*100>norm                   291  2.273094397394291E-003
dropped smallnorm   356   369   6.23978225E-06
dropped smallnorm   367   381   2.89747233E-05
dropped smallnorm   367   382   2.56404374E-05
dropped smallnorm   367   383   3.11014933E-05
 tol*100>norm                   409  2.339808822010385E-003
 tol*100>norm                   410  1.340871319612541E-003
 tol*100>norm                   411  1.386270931587410E-003
 tol*100>norm                   412  1.873617274249620E-003
 tol*100>norm                   413  2.327306987324970E-003
dropped smallnorm   474   491   6.25257984E-06
dropped smallnorm   485   503   2.89724894E-05
dropped smallnorm   485   504   3.24932419E-05
dropped smallnorm   485   505   2.41581076E-05
 tol*100>norm                   531  2.271952389572317E-003
 tol*100>norm                   532  2.022357606599919E-003
 tol*100>norm                   533  1.387830249247258E-003
 tol*100>norm                   534  1.205768669108067E-003
 tol*100>norm                   535  2.377621243345682E-003
dropped smallnorm   592   613   6.23256171E-06
dropped smallnorm   603   625   2.89734167E-05
dropped smallnorm   603   626   2.44102810E-05
dropped smallnorm   603   627   3.23716680E-05
 tol*100>norm                   653  2.299205796938812E-003
 tol*100>norm                   654  1.217164968717682E-003
 tol*100>norm                   655  1.387002818313181E-003
 tol*100>norm                   656  1.995785521955034E-003
 tol*100>norm                   657  2.376483018891042E-003
 Number of Cholesky vectors:      7
 MP2 energy in LIS [au]:         -0.092065687395
 Correction for frozen LNO [au]: -0.001940823122     (2.065%)
 Number of NAFs:               1021  (47.14%)
 CPU time [min]:  3481.032                   Wall time [min]:   122.264
 

 Direct DF-CCSD(T) calculation
 
 Convergence criterion:  1.0E-05
 
 Number of occupied/virtual/auxiliary orbitals:    48   268  1021
   4803.34 MB is the minimal memory requirement for (T)
   2940.24 MB is the minimal memory requirement for CCSD
 
 MP2 correlation energy [au]:       -3.348695031123
 
 LMP2 domain correlation energy contribution [au]:       -0.092065283384
 
 CPU time [min]:  3482.402                   Wall time [min]:   122.507
 
 
 Starting CCSD iterations...
 
                     Residual norm       Correlation Energy
 Iteration  1        0.542336108846       -2.956914428058
 Iteration  2        0.199875329138       -3.070347373781
 Iteration  3        0.043260742843       -3.088830970392
 Iteration  4        0.019962820100       -3.087080117169
 Iteration  5        0.007466776438       -3.084366793155
 Iteration  6        0.003350781470       -3.084222979836
 Iteration  7        0.001549726637       -3.084685720240
 Iteration  8        0.000752223684       -3.084706808163
 Iteration  9        0.000324721443       -3.084663899958
 Iteration 10        0.000171574981       -3.084668490879
 Iteration 11        0.000071992799       -3.084669823170
 
 CCSD iteration has converged in 11 steps.
    22566.60 MB memory was utilized by CCSD
 
 T1 diagnostic:      1.818E-02            D1 diagnostic:      7.246E-02
 
 T1 contribution [au]:                         0.000000000000
 CCSD correlation energy [au]:                -0.079931385851
 
 CPU time [min]:  3781.171                   Wall time [min]:   133.722
 
 Calculation of (T) correction...
 
 Laplace threshold, nquadmin:  1.00E-02   3
 Number of quadrature points:    3
 
    12156.71 MB memory is utilized for (T)

 0%       25%       50%       75%       100%
 |---------|---------|---------|---------| 
 
 (T) correction [au]:                   -0.008184792397
 CCSD(T) correlation energy [au]:       -0.088116178249
 
 CPU time [min]:  4098.960                   Wall time [min]:   143.204
 
 **********************************************************************
 Dimensions of the extended domains:    Minimum / Average / Maximum
 
 Number of atoms in domain:                   6       6.0         6
 Number of atomic orbitals:                 732     732.0       732
 Number of fitting functions:              2166    2166.0      2166
 Number of occupied localized MOs:           16      36.3        57
 Number of PAOs:                            675     675.0       675
 Number of occupied LNOs:                    10      22.0        50
 Number of virtual  LNOs:                    59     103.4       272
 Number of NAFs:                            216     404.2      1041
 
 **********************************************************************
 Distant (and weak) pair contributions, corrections
 
 Sum of pair energies [au]:                    -0.001218538553    (0.024%)
 Sum of energy corrections [au]:               -0.046079581103    (0.916%)
 Pair energies + LNO corrections [au]:         -0.047298119656
 Sum of LMP2 contributions [au]:               -5.028243225511
 
 **********************************************************************
  Time of manipulations in the EDs:      max CPU/Wall [s]  all CPU/Wall [min]
 
 PD construction & multipole pair E     433.17    12.72     7.22     0.21
 Construct MO basis of the ED             7.09     0.20     5.82     0.16
 (mu,nu|P) evaluation & trf 2 (ai|P)    623.18    17.40   411.44    11.47
 Evaluate MP2 energy of the ED           75.80     2.14    43.97     1.23
 Transformations to the LNO basis        47.71     1.34    20.26     0.57
 Build W_PQ (Jai or Jpi part)             4.74     0.13     2.16     0.06
 Evaluate MP2 energy of the LIS           8.97     0.25     1.21     0.03
 (mu,nu|P) evaluation & trf 2 J(abQ)   1783.65    77.13   781.90    33.01
 Total of the above for all EDs        2551.14    98.59  1266.75    46.52
 
 **********************************************************************
 Maximum memory requirement [MB]:       
 
 PD construction & multipole pair E         41.8
 AO integral evaluation in the EDs        2959.4
 (mu,nu|P) evaluation & trf 2 (aI|P)      5295.7
 Evaluate MP2 energy in the EDs           1587.4
 Transformation to the LNO basis           963.1
 (mu,nu|P) to Jab transformation          3614.9
 Evaluate MP2 energy in the LIS           1015.8
 Minimum requirement for LIS CCSD         3195.1
 Actually allocated  for LIS CCSD        24026.8
 Minimum requirement for LIS (T)          5155.5
 Actually allocated  for LIS (T)         13235.6
 
 ======================================================================
 ======================================================================
 
 
 
 ======================================================================
 ======================================================================
 
 Final local CC results:
 
 Minimum number of correlated electrons:        20       ( 17.5%)
 Maximum number of correlated electrons:       100       ( 87.7%)
 Average number of correlated electrons:        44.1     ( 38.7%)
 Minimum number of correlated orbitals:         69       (  9.4%)
 Maximum number of correlated orbitals:        322       ( 44.0%)
 Average number of correlated orbitals:        125.4     ( 17.1%)
 
 CPU time for integral calculations [min]:                 19.940
 Wall time for integral calculations [min]:                 2.024
 
 CPU time for SCF calculation [min]:                       40.894
 Wall time for SCF calculation [min]:                       1.186
 
 CPU time for orbital localization [min]:                   0.303
 Wall time for orbital localization [min]:                  0.054
 
 CPU time for integral transformations [min]:            1295.850
 Wall time for integral transformations [min]:             47.419
 
 Reference energy [au]:                                  -876.408348351729
 
 LMP2 correlation energy [au]:                             -5.028243225511
 Total LMP2 energy [au]:                                 -881.436591577240
 
 Total MP2 correction for dropped NAFs [au]:               -0.000086408261
 Total MP2 correction [au]:                                -0.047384527917
 
 CPU time for CCSD calculations [min]:                   1378.446
 Total CPU time for CCSD [min]:                          2735.432
 Wall time for CCSD calculations [min]:                    53.410
 Total wall time for CCSD [min]:                          104.092
 
 CCSD correlation energy [au]:                             -4.665957786245
 Total CCSD energy [au]:                                 -881.074306137974
 CCSD correlation energy + 0.5 MP2 corrections [au]:       -4.689650050203
 Total LNO-CCSD energy with MP2 corrections [au]:        -881.097998401933
 
 CPU time for (T) corrections [min]:                     1424.674
 Total CPU time for CCSD(T) [min]:                       4160.106
 Wall time for (T) corrections [min]:                      42.376
 Total wall time for CCSD(T) [min]:                       146.468
 
 Total (T) correlation energy contribution [au]:           -0.190256727801
 Total (T) correlation energy+0.5 MP2 correction [au]:     -0.213948991759
 CCSD(T) correlation energy [au]:                          -4.856214514046
 Total CCSD(T) energy [au]:                              -881.264562865775
 CCSD(T) correlation energy + MP2 corrections [au]:        -4.903599041962
 Total LNO-CCSD(T) energy with MP2 corrections [au]:     -881.311947393692
 
 ======================================================================
 ======================================================================
 
 ************************ 2023-02-27 03:05:03 *************************
                      Normal termination of mrcc.
 **********************************************************************
