 **********************************************************************
                          MRCC program system
 **********************************************************************
 
                              Written by
     Mihaly Kallay, Peter R. Nagy, David Mester, Laszlo Gyevi-Nagy,
        Jozsef Csoka, P. Bernat Szabo, Zoltan Rolik, Gyula Samu,
     Jozsef Csontos, Bence Hegely, Adam Ganyecz, Istvan Ladjanszki,
       Lorant Szegedy, Bence Ladoczki, Klara Petrov, Mate Farkas,
                    Pal D. Mezei, and Reka A. Horvath
 
        Department of Physical Chemistry and Materials Science
            Budapest University of Technology and Economics
                  Budapest P.O.Box 91, H-1521 Hungary
 
                              www.mrcc.hu
 
                      Release date: March 18, 2022

 ************************ 2022-11-12 13:27:12 *************************
 Executing minp...

 Reading input from MINP...
 
 Input file:
 
calc=FNO-CCSD(T)
scftyp=uhf
verbosity=3
mem=150GB
unit=angs
scfiguess=small
scfalg=locfit1
lcorthr=tight
ccmaxit=400
ccsdalg=dfdirect
ccsdthreads=4
ccsdmkl=thr
ptthreads=4
lnoepsv=1e-5
naf_cor=1e-2
ECP=MCDHF-ECP-10
basis=bse_ACVQZ
basis_sm=def2-SVP
dfbasis_scf=def2-QZVPP-RI-JK
dfbasis_cor=bse_ACVQZ_mp2fit
mult=2
core=0
unit=angs
geom=xyz
4
Cu4
Cu    -0.79550424     2.19091526    -0.08195085
Cu    -1.03012119    -2.19091526    -0.91001768
Cu    -0.43608716    -0.14643675    -0.22475424
Cu     1.03012119     1.32773866     0.91001768

ghost=serialno
1,2,3
 
 
 Checking keyword combinations...
 
 Keywords:
 
 active=none
 agrid=ld0006-ld0590
 agrid_pssp=ld0006-ld0194
 agrid_pssp_sm=ld0006-ld0074
 basis=bse_acvqz
 basis_sm=def2-svp
 basopt=off
 bfbasis=none
 bfgsmem=10
 bfgstol=1.0d-3
 bpcompo=0.985
 bpcompv=0.98
 bpdfo=0.985
 bpocc=0.985
 bppdo=0.985
 bppdv=0.98
 bpedo=0.985
 bpedv=0.98
 calc=ccsd(t)
 ccmaxit=400
 ccprog=ccsd
 ccsdalg=dfdirect
 ccsdmkl=thr
 ccsdrest=trf
 ccsdthreads=4
 cctol=6
 charge=0
 cialg=auto
 ciguess=off
 cmpgrp=auto
 comprest=off
 core=corr
 corembed=off
 csapprox=off
 cvs=off
 dboc=off
 delocsomofact=
 dendec=cholesky
 dens=0
 dfalg=lineq
 dfbasis_cab=none
 dfbasis_cor=bse_acvqz_mp2fit
 dfbasis_scf=def2-qzvpp-ri-jk
 dfbasis_scf_sm=def2-qzvpp-ri-jk
 dfintran=drpa
 dft=off
 dhexc=adc(2)
 diag=david
 docc=
 domrad=10.d0
 drpaalg=fit
 dual=off
 dual_df=off
 ecp=mcdhf-ecp-10
 edisp=off
 edisp_embed=off
 embed=off
 etemp=300
 epert=none
 eps=
 espcharge=off
 excrad=1.0
 excrad_fin=0.100000000D-02
 fitting=coulomb
 fmm=off
 fmmord=8
 freq=off
 gamma=1.d0
 gauss=spher
 geom=xyz
 gopt=off
 ghost=serialno
 gtol=7
 grdens=off
 gridbatch_cos=2000
 grtol=10
 guido_ct=off
 hamilton=dc
 iface=none
 intalg=auto
 itol=10
 laptol=1.d-3
 lccoporder=trffirst
 lcorthr=tight
 lccrest=off
 lmp2dens=on
 lnoepso=0.d0
 lnoepsv=1e-5
 boysalg=jacobi
 localcc=off
 localcorrsymm=off
 locintrf=disk
 mact=
 maxact=off
 maxdim=100
 maxex=0
 maxmicroit=100
 mcscfiguess=hf
 mem=150gb
 mmprog=
 molden=on
 mpitasks=1
 mulmet=0
 mult=2
 nacto=0
 nactv=0
 naf_amp=1.d-2
 naf_cor=1e-2
 naf_scf=off
 nafalg=albe
 naftyp=
 nchol=auto
 ndeps=1e-3
 nstate=1
 nsing=0
 nto=off
 ntrip=0
 occ=
 occri=off
 oniom=off
 oniom_eechg=off
 oniom_pcm=off
 oniom_qcorr=off
 optalg=
 optmaxit=50
 optetol=1e-6
 optex=0
 optgtol=1e-4
 optstol=1e-3
 orblocc=off
 orbloce=off
 orbloco=off
 orblocv=off
 orblocguess=cholesky
 osveps=1e-4
 ovirt=ppl
 ovltol=1e-7
 ovosnorb=80.0
 pcm=off
 popul=off
 pressure=100000
 pssp=off
 ptfreq=0.0
 ptthreads=4
 qro=off
 qscf=off
 qmmm=off
 redcost_exc=off
 redcost_tddft=off
 refdet=none
 rest=0
 rgrid=log3
 rism=off
 rohfcore=semicanonical
 rohftype=semicanonical
 scfalg=locfit1
 scf_conv=difficult
 scfdamp=0.0d0
 scfdamp_mode=off
 scfdamp_end=50
 scfdamp_dampstep=0.d0
 scfdamp_dtol=0.0d0
 scfdamp_maxfact=0.0d0
 scfdamp_minfact=0.0d0
 scfdiis=on
 scfdiis_dtol=0.0d0
 scfdiis_end=50
 scfdiis_start=2
 scfdiis_step=1
 scfdiis_watch=off
 scfdiis_wrange=10
 scfdiis_wlimit=5
 scfdiis_delmax=2
 scfdtol=7
 scfext=10
 scfguessdens=
 scfiguess=small
 scfloc=pm
 scflshift=0.20
 scflshift_end=8
 scflshift_dtol=0.0
 scflshift_gaptol=0.20
 scfmaxit=50
 scftype=uhf
 scftol=6
 scspe=1.d0
 scsph=1.d0
 scsps=1.2d0
 scsps_t=1.2d0
 scspt=0.33333333333333
 scspt_t=0.33333333333333
 scspv=1.d0
 spairtol=1e-5
 sqmprog=
 subminp=top
 symm=
 talg=occ
 temp=298.15
 test=off
 theodore=off
 tlmo=0.999
 tpao=0.94
 tprint=off
 uncontract=off
 unit=angs
 usedisk=2
 verbosity=3
 wpairtol=0.100000000E-06
 
 Calculating integrals for small-basis SCF...

 ************************ 2022-11-12 13:27:12 *************************
 Executing integ...

 Allocation of 150.0 Gbytes of memory...
 
 
 Number of atoms:                  4
 Charge:                           0
 Number of electrons:             19
 Number of core electrons:         8
 Spin multiplicity:                2
 
                 Cartesian coordinates [bohr]      Atomic mass [AMU]  Z
   1  Cu   -1.50328515    4.14022981   -0.15486466     0.000000       0
   2  Cu   -1.94664693   -4.14022981   -1.71968418     0.000000       0
   3  Cu   -0.82408530   -0.27672535   -0.42472396     0.000000       0
   4  Cu    1.94664693    2.50906243    1.71968418    62.929599      29
 
 This molecule is an asymmetric top.
 This molecule is planar.
 
 Point group: C1  
 Computational point group: C1  
 
 Cartesian coordinates in standard orientation [bohr]
   1  Cu   -0.21938027   -3.70981456    0.00003668
   2  Cu   -7.33680509    0.82378282    0.00006839
   3  Cu   -3.31487906   -0.47538779   -0.00014177
   4  Cu    1.08710644    0.33614195    0.00000367
 
 Nuclear repulsion energy [au]:          0.000000000000
 
 
 Basis set information:
 
 Maximum angular momentum: i
 Maximum number of contracted Gaussians:   16
 Maximum number of primitive Gaussians:    19
 Spherical harmonic GTOs are used.
 
 
 Conventional basis set:
 
   1  Cu def2-svp [ 14s 9p 5d 1f | 5s 3p 2d 1f ]
   2  Cu def2-svp [ 14s 9p 5d 1f | 5s 3p 2d 1f ]
   3  Cu def2-svp [ 14s 9p 5d 1f | 5s 3p 2d 1f ]
   4  Cu def2-svp [ 14s 9p 5d 1f | 5s 3p 2d 1f ]
 
 Basis functions:
            1             2             3             4             5             6             7             8             9            10
    0    1Cu1s         1Cu2s         1Cu3s         1Cu4s         1Cu5s         1Cu1pz        1Cu1py        1Cu1px        1Cu2pz        1Cu2py    
    1    1Cu2px        1Cu3pz        1Cu3py        1Cu3px        1Cu1d-2       1Cu1d-1       1Cu1d0        1Cu1d+1       1Cu1d+2       1Cu2d-2   
    2    1Cu2d-1       1Cu2d0        1Cu2d+1       1Cu2d+2       1Cu1f-3       1Cu1f-2       1Cu1f-1       1Cu1f0        1Cu1f+1       1Cu1f+2   
    3    1Cu1f+3       2Cu1s         2Cu2s         2Cu3s         2Cu4s         2Cu5s         2Cu1pz        2Cu1py        2Cu1px        2Cu2pz    
    4    2Cu2py        2Cu2px        2Cu3pz        2Cu3py        2Cu3px        2Cu1d-2       2Cu1d-1       2Cu1d0        2Cu1d+1       2Cu1d+2   
    5    2Cu2d-2       2Cu2d-1       2Cu2d0        2Cu2d+1       2Cu2d+2       2Cu1f-3       2Cu1f-2       2Cu1f-1       2Cu1f0        2Cu1f+1   
    6    2Cu1f+2       2Cu1f+3       3Cu1s         3Cu2s         3Cu3s         3Cu4s         3Cu5s         3Cu1pz        3Cu1py        3Cu1px    
    7    3Cu2pz        3Cu2py        3Cu2px        3Cu3pz        3Cu3py        3Cu3px        3Cu1d-2       3Cu1d-1       3Cu1d0        3Cu1d+1   
    8    3Cu1d+2       3Cu2d-2       3Cu2d-1       3Cu2d0        3Cu2d+1       3Cu2d+2       3Cu1f-3       3Cu1f-2       3Cu1f-1       3Cu1f0    
    9    3Cu1f+1       3Cu1f+2       3Cu1f+3       4Cu1s         4Cu2s         4Cu3s         4Cu4s         4Cu5s         4Cu1pz        4Cu1py    
   10    4Cu1px        4Cu2pz        4Cu2py        4Cu2px        4Cu3pz        4Cu3py        4Cu3px        4Cu1d-2       4Cu1d-1       4Cu1d0    
   11    4Cu1d+1       4Cu1d+2       4Cu2d-2       4Cu2d-1       4Cu2d0        4Cu2d+1       4Cu2d+2       4Cu1f-3       4Cu1f-2       4Cu1f-1   
   12    4Cu1f0        4Cu1f+1       4Cu1f+2       4Cu1f+3   
 
 Maximum number of basis functions per shell:   10
 Total number of basis functions:    124
 
 
 Fitting basis set for the SCF calculation:
 
   1  Cu def2-qzvpp-ri-jk [ 19s 14p 12d 10f 7g 3h 1i | 16s 13p 11d 9f 5g 3h 1i ]
   2  Cu def2-qzvpp-ri-jk [ 19s 14p 12d 10f 7g 3h 1i | 16s 13p 11d 9f 5g 3h 1i ]
   3  Cu def2-qzvpp-ri-jk [ 19s 14p 12d 10f 7g 3h 1i | 16s 13p 11d 9f 5g 3h 1i ]
   4  Cu def2-qzvpp-ri-jk [ 19s 14p 12d 10f 7g 3h 1i | 16s 13p 11d 9f 5g 3h 1i ]
 
 Basis functions:
            1             2             3             4             5             6             7             8             9            10
    0    1Cu1s         1Cu2s         1Cu3s         1Cu4s         1Cu5s         1Cu6s         1Cu7s         1Cu8s         1Cu9s         1Cu10s    
    1    1Cu11s        1Cu12s        1Cu13s        1Cu14s        1Cu15s        1Cu16s        1Cu1pz        1Cu1py        1Cu1px        1Cu2pz    
    2    1Cu2py        1Cu2px        1Cu3pz        1Cu3py        1Cu3px        1Cu4pz        1Cu4py        1Cu4px        1Cu5pz        1Cu5py    
    3    1Cu5px        1Cu6pz        1Cu6py        1Cu6px        1Cu7pz        1Cu7py        1Cu7px        1Cu8pz        1Cu8py        1Cu8px    
    4    1Cu9pz        1Cu9py        1Cu9px        1Cu10pz       1Cu10py       1Cu10px       1Cu11pz       1Cu11py       1Cu11px       1Cu12pz   
    5    1Cu12py       1Cu12px       1Cu13pz       1Cu13py       1Cu13px       1Cu1d-2       1Cu1d-1       1Cu1d0        1Cu1d+1       1Cu1d+2   
    6    1Cu2d-2       1Cu2d-1       1Cu2d0        1Cu2d+1       1Cu2d+2       1Cu3d-2       1Cu3d-1       1Cu3d0        1Cu3d+1       1Cu3d+2   
    7    1Cu4d-2       1Cu4d-1       1Cu4d0        1Cu4d+1       1Cu4d+2       1Cu5d-2       1Cu5d-1       1Cu5d0        1Cu5d+1       1Cu5d+2   
    8    1Cu6d-2       1Cu6d-1       1Cu6d0        1Cu6d+1       1Cu6d+2       1Cu7d-2       1Cu7d-1       1Cu7d0        1Cu7d+1       1Cu7d+2   
    9    1Cu8d-2       1Cu8d-1       1Cu8d0        1Cu8d+1       1Cu8d+2       1Cu9d-2       1Cu9d-1       1Cu9d0        1Cu9d+1       1Cu9d+2   
   10    1Cu10d-2      1Cu10d-1      1Cu10d0       1Cu10d+1      1Cu10d+2      1Cu11d-2      1Cu11d-1      1Cu11d0       1Cu11d+1      1Cu11d+2  
   11    1Cu1f-3       1Cu1f-2       1Cu1f-1       1Cu1f0        1Cu1f+1       1Cu1f+2       1Cu1f+3       1Cu2f-3       1Cu2f-2       1Cu2f-1   
   12    1Cu2f0        1Cu2f+1       1Cu2f+2       1Cu2f+3       1Cu3f-3       1Cu3f-2       1Cu3f-1       1Cu3f0        1Cu3f+1       1Cu3f+2   
   13    1Cu3f+3       1Cu4f-3       1Cu4f-2       1Cu4f-1       1Cu4f0        1Cu4f+1       1Cu4f+2       1Cu4f+3       1Cu5f-3       1Cu5f-2   
   14    1Cu5f-1       1Cu5f0        1Cu5f+1       1Cu5f+2       1Cu5f+3       1Cu6f-3       1Cu6f-2       1Cu6f-1       1Cu6f0        1Cu6f+1   
   15    1Cu6f+2       1Cu6f+3       1Cu7f-3       1Cu7f-2       1Cu7f-1       1Cu7f0        1Cu7f+1       1Cu7f+2       1Cu7f+3       1Cu8f-3   
   16    1Cu8f-2       1Cu8f-1       1Cu8f0        1Cu8f+1       1Cu8f+2       1Cu8f+3       1Cu9f-3       1Cu9f-2       1Cu9f-1       1Cu9f0    
   17    1Cu9f+1       1Cu9f+2       1Cu9f+3       1Cu1g-4       1Cu1g-3       1Cu1g-2       1Cu1g-1       1Cu1g0        1Cu1g+1       1Cu1g+2   
   18    1Cu1g+3       1Cu1g+4       1Cu2g-4       1Cu2g-3       1Cu2g-2       1Cu2g-1       1Cu2g0        1Cu2g+1       1Cu2g+2       1Cu2g+3   
   19    1Cu2g+4       1Cu3g-4       1Cu3g-3       1Cu3g-2       1Cu3g-1       1Cu3g0        1Cu3g+1       1Cu3g+2       1Cu3g+3       1Cu3g+4   
   20    1Cu4g-4       1Cu4g-3       1Cu4g-2       1Cu4g-1       1Cu4g0        1Cu4g+1       1Cu4g+2       1Cu4g+3       1Cu4g+4       1Cu5g-4   
   21    1Cu5g-3       1Cu5g-2       1Cu5g-1       1Cu5g0        1Cu5g+1       1Cu5g+2       1Cu5g+3       1Cu5g+4       1Cu1h-5       1Cu1h-4   
   22    1Cu1h-3       1Cu1h-2       1Cu1h-1       1Cu1h0        1Cu1h+1       1Cu1h+2       1Cu1h+3       1Cu1h+4       1Cu1h+5       1Cu2h-5   
   23    1Cu2h-4       1Cu2h-3       1Cu2h-2       1Cu2h-1       1Cu2h0        1Cu2h+1       1Cu2h+2       1Cu2h+3       1Cu2h+4       1Cu2h+5   
   24    1Cu3h-5       1Cu3h-4       1Cu3h-3       1Cu3h-2       1Cu3h-1       1Cu3h0        1Cu3h+1       1Cu3h+2       1Cu3h+3       1Cu3h+4   
   25    1Cu3h+5       1Cu1i-6       1Cu1i-5       1Cu1i-4       1Cu1i-3       1Cu1i-2       1Cu1i-1       1Cu1i0        1Cu1i+1       1Cu1i+2   
   26    1Cu1i+3       1Cu1i+4       1Cu1i+5       1Cu1i+6       2Cu1s         2Cu2s         2Cu3s         2Cu4s         2Cu5s         2Cu6s     
   27    2Cu7s         2Cu8s         2Cu9s         2Cu10s        2Cu11s        2Cu12s        2Cu13s        2Cu14s        2Cu15s        2Cu16s    
   28    2Cu1pz        2Cu1py        2Cu1px        2Cu2pz        2Cu2py        2Cu2px        2Cu3pz        2Cu3py        2Cu3px        2Cu4pz    
   29    2Cu4py        2Cu4px        2Cu5pz        2Cu5py        2Cu5px        2Cu6pz        2Cu6py        2Cu6px        2Cu7pz        2Cu7py    
   30    2Cu7px        2Cu8pz        2Cu8py        2Cu8px        2Cu9pz        2Cu9py        2Cu9px        2Cu10pz       2Cu10py       2Cu10px   
   31    2Cu11pz       2Cu11py       2Cu11px       2Cu12pz       2Cu12py       2Cu12px       2Cu13pz       2Cu13py       2Cu13px       2Cu1d-2   
   32    2Cu1d-1       2Cu1d0        2Cu1d+1       2Cu1d+2       2Cu2d-2       2Cu2d-1       2Cu2d0        2Cu2d+1       2Cu2d+2       2Cu3d-2   
   33    2Cu3d-1       2Cu3d0        2Cu3d+1       2Cu3d+2       2Cu4d-2       2Cu4d-1       2Cu4d0        2Cu4d+1       2Cu4d+2       2Cu5d-2   
   34    2Cu5d-1       2Cu5d0        2Cu5d+1       2Cu5d+2       2Cu6d-2       2Cu6d-1       2Cu6d0        2Cu6d+1       2Cu6d+2       2Cu7d-2   
   35    2Cu7d-1       2Cu7d0        2Cu7d+1       2Cu7d+2       2Cu8d-2       2Cu8d-1       2Cu8d0        2Cu8d+1       2Cu8d+2       2Cu9d-2   
   36    2Cu9d-1       2Cu9d0        2Cu9d+1       2Cu9d+2       2Cu10d-2      2Cu10d-1      2Cu10d0       2Cu10d+1      2Cu10d+2      2Cu11d-2  
   37    2Cu11d-1      2Cu11d0       2Cu11d+1      2Cu11d+2      2Cu1f-3       2Cu1f-2       2Cu1f-1       2Cu1f0        2Cu1f+1       2Cu1f+2   
   38    2Cu1f+3       2Cu2f-3       2Cu2f-2       2Cu2f-1       2Cu2f0        2Cu2f+1       2Cu2f+2       2Cu2f+3       2Cu3f-3       2Cu3f-2   
   39    2Cu3f-1       2Cu3f0        2Cu3f+1       2Cu3f+2       2Cu3f+3       2Cu4f-3       2Cu4f-2       2Cu4f-1       2Cu4f0        2Cu4f+1   
   40    2Cu4f+2       2Cu4f+3       2Cu5f-3       2Cu5f-2       2Cu5f-1       2Cu5f0        2Cu5f+1       2Cu5f+2       2Cu5f+3       2Cu6f-3   
   41    2Cu6f-2       2Cu6f-1       2Cu6f0        2Cu6f+1       2Cu6f+2       2Cu6f+3       2Cu7f-3       2Cu7f-2       2Cu7f-1       2Cu7f0    
   42    2Cu7f+1       2Cu7f+2       2Cu7f+3       2Cu8f-3       2Cu8f-2       2Cu8f-1       2Cu8f0        2Cu8f+1       2Cu8f+2       2Cu8f+3   
   43    2Cu9f-3       2Cu9f-2       2Cu9f-1       2Cu9f0        2Cu9f+1       2Cu9f+2       2Cu9f+3       2Cu1g-4       2Cu1g-3       2Cu1g-2   
   44    2Cu1g-1       2Cu1g0        2Cu1g+1       2Cu1g+2       2Cu1g+3       2Cu1g+4       2Cu2g-4       2Cu2g-3       2Cu2g-2       2Cu2g-1   
   45    2Cu2g0        2Cu2g+1       2Cu2g+2       2Cu2g+3       2Cu2g+4       2Cu3g-4       2Cu3g-3       2Cu3g-2       2Cu3g-1       2Cu3g0    
   46    2Cu3g+1       2Cu3g+2       2Cu3g+3       2Cu3g+4       2Cu4g-4       2Cu4g-3       2Cu4g-2       2Cu4g-1       2Cu4g0        2Cu4g+1   
   47    2Cu4g+2       2Cu4g+3       2Cu4g+4       2Cu5g-4       2Cu5g-3       2Cu5g-2       2Cu5g-1       2Cu5g0        2Cu5g+1       2Cu5g+2   
   48    2Cu5g+3       2Cu5g+4       2Cu1h-5       2Cu1h-4       2Cu1h-3       2Cu1h-2       2Cu1h-1       2Cu1h0        2Cu1h+1       2Cu1h+2   
   49    2Cu1h+3       2Cu1h+4       2Cu1h+5       2Cu2h-5       2Cu2h-4       2Cu2h-3       2Cu2h-2       2Cu2h-1       2Cu2h0        2Cu2h+1   
   50    2Cu2h+2       2Cu2h+3       2Cu2h+4       2Cu2h+5       2Cu3h-5       2Cu3h-4       2Cu3h-3       2Cu3h-2       2Cu3h-1       2Cu3h0    
   51    2Cu3h+1       2Cu3h+2       2Cu3h+3       2Cu3h+4       2Cu3h+5       2Cu1i-6       2Cu1i-5       2Cu1i-4       2Cu1i-3       2Cu1i-2   
   52    2Cu1i-1       2Cu1i0        2Cu1i+1       2Cu1i+2       2Cu1i+3       2Cu1i+4       2Cu1i+5       2Cu1i+6       3Cu1s         3Cu2s     
   53    3Cu3s         3Cu4s         3Cu5s         3Cu6s         3Cu7s         3Cu8s         3Cu9s         3Cu10s        3Cu11s        3Cu12s    
   54    3Cu13s        3Cu14s        3Cu15s        3Cu16s        3Cu1pz        3Cu1py        3Cu1px        3Cu2pz        3Cu2py        3Cu2px    
   55    3Cu3pz        3Cu3py        3Cu3px        3Cu4pz        3Cu4py        3Cu4px        3Cu5pz        3Cu5py        3Cu5px        3Cu6pz    
   56    3Cu6py        3Cu6px        3Cu7pz        3Cu7py        3Cu7px        3Cu8pz        3Cu8py        3Cu8px        3Cu9pz        3Cu9py    
   57    3Cu9px        3Cu10pz       3Cu10py       3Cu10px       3Cu11pz       3Cu11py       3Cu11px       3Cu12pz       3Cu12py       3Cu12px   
   58    3Cu13pz       3Cu13py       3Cu13px       3Cu1d-2       3Cu1d-1       3Cu1d0        3Cu1d+1       3Cu1d+2       3Cu2d-2       3Cu2d-1   
   59    3Cu2d0        3Cu2d+1       3Cu2d+2       3Cu3d-2       3Cu3d-1       3Cu3d0        3Cu3d+1       3Cu3d+2       3Cu4d-2       3Cu4d-1   
   60    3Cu4d0        3Cu4d+1       3Cu4d+2       3Cu5d-2       3Cu5d-1       3Cu5d0        3Cu5d+1       3Cu5d+2       3Cu6d-2       3Cu6d-1   
   61    3Cu6d0        3Cu6d+1       3Cu6d+2       3Cu7d-2       3Cu7d-1       3Cu7d0        3Cu7d+1       3Cu7d+2       3Cu8d-2       3Cu8d-1   
   62    3Cu8d0        3Cu8d+1       3Cu8d+2       3Cu9d-2       3Cu9d-1       3Cu9d0        3Cu9d+1       3Cu9d+2       3Cu10d-2      3Cu10d-1  
   63    3Cu10d0       3Cu10d+1      3Cu10d+2      3Cu11d-2      3Cu11d-1      3Cu11d0       3Cu11d+1      3Cu11d+2      3Cu1f-3       3Cu1f-2   
   64    3Cu1f-1       3Cu1f0        3Cu1f+1       3Cu1f+2       3Cu1f+3       3Cu2f-3       3Cu2f-2       3Cu2f-1       3Cu2f0        3Cu2f+1   
   65    3Cu2f+2       3Cu2f+3       3Cu3f-3       3Cu3f-2       3Cu3f-1       3Cu3f0        3Cu3f+1       3Cu3f+2       3Cu3f+3       3Cu4f-3   
   66    3Cu4f-2       3Cu4f-1       3Cu4f0        3Cu4f+1       3Cu4f+2       3Cu4f+3       3Cu5f-3       3Cu5f-2       3Cu5f-1       3Cu5f0    
   67    3Cu5f+1       3Cu5f+2       3Cu5f+3       3Cu6f-3       3Cu6f-2       3Cu6f-1       3Cu6f0        3Cu6f+1       3Cu6f+2       3Cu6f+3   
   68    3Cu7f-3       3Cu7f-2       3Cu7f-1       3Cu7f0        3Cu7f+1       3Cu7f+2       3Cu7f+3       3Cu8f-3       3Cu8f-2       3Cu8f-1   
   69    3Cu8f0        3Cu8f+1       3Cu8f+2       3Cu8f+3       3Cu9f-3       3Cu9f-2       3Cu9f-1       3Cu9f0        3Cu9f+1       3Cu9f+2   
   70    3Cu9f+3       3Cu1g-4       3Cu1g-3       3Cu1g-2       3Cu1g-1       3Cu1g0        3Cu1g+1       3Cu1g+2       3Cu1g+3       3Cu1g+4   
   71    3Cu2g-4       3Cu2g-3       3Cu2g-2       3Cu2g-1       3Cu2g0        3Cu2g+1       3Cu2g+2       3Cu2g+3       3Cu2g+4       3Cu3g-4   
   72    3Cu3g-3       3Cu3g-2       3Cu3g-1       3Cu3g0        3Cu3g+1       3Cu3g+2       3Cu3g+3       3Cu3g+4       3Cu4g-4       3Cu4g-3   
   73    3Cu4g-2       3Cu4g-1       3Cu4g0        3Cu4g+1       3Cu4g+2       3Cu4g+3       3Cu4g+4       3Cu5g-4       3Cu5g-3       3Cu5g-2   
   74    3Cu5g-1       3Cu5g0        3Cu5g+1       3Cu5g+2       3Cu5g+3       3Cu5g+4       3Cu1h-5       3Cu1h-4       3Cu1h-3       3Cu1h-2   
   75    3Cu1h-1       3Cu1h0        3Cu1h+1       3Cu1h+2       3Cu1h+3       3Cu1h+4       3Cu1h+5       3Cu2h-5       3Cu2h-4       3Cu2h-3   
   76    3Cu2h-2       3Cu2h-1       3Cu2h0        3Cu2h+1       3Cu2h+2       3Cu2h+3       3Cu2h+4       3Cu2h+5       3Cu3h-5       3Cu3h-4   
   77    3Cu3h-3       3Cu3h-2       3Cu3h-1       3Cu3h0        3Cu3h+1       3Cu3h+2       3Cu3h+3       3Cu3h+4       3Cu3h+5       3Cu1i-6   
   78    3Cu1i-5       3Cu1i-4       3Cu1i-3       3Cu1i-2       3Cu1i-1       3Cu1i0        3Cu1i+1       3Cu1i+2       3Cu1i+3       3Cu1i+4   
   79    3Cu1i+5       3Cu1i+6       4Cu1s         4Cu2s         4Cu3s         4Cu4s         4Cu5s         4Cu6s         4Cu7s         4Cu8s     
   80    4Cu9s         4Cu10s        4Cu11s        4Cu12s        4Cu13s        4Cu14s        4Cu15s        4Cu16s        4Cu1pz        4Cu1py    
   81    4Cu1px        4Cu2pz        4Cu2py        4Cu2px        4Cu3pz        4Cu3py        4Cu3px        4Cu4pz        4Cu4py        4Cu4px    
   82    4Cu5pz        4Cu5py        4Cu5px        4Cu6pz        4Cu6py        4Cu6px        4Cu7pz        4Cu7py        4Cu7px        4Cu8pz    
   83    4Cu8py        4Cu8px        4Cu9pz        4Cu9py        4Cu9px        4Cu10pz       4Cu10py       4Cu10px       4Cu11pz       4Cu11py   
   84    4Cu11px       4Cu12pz       4Cu12py       4Cu12px       4Cu13pz       4Cu13py       4Cu13px       4Cu1d-2       4Cu1d-1       4Cu1d0    
   85    4Cu1d+1       4Cu1d+2       4Cu2d-2       4Cu2d-1       4Cu2d0        4Cu2d+1       4Cu2d+2       4Cu3d-2       4Cu3d-1       4Cu3d0    
   86    4Cu3d+1       4Cu3d+2       4Cu4d-2       4Cu4d-1       4Cu4d0        4Cu4d+1       4Cu4d+2       4Cu5d-2       4Cu5d-1       4Cu5d0    
   87    4Cu5d+1       4Cu5d+2       4Cu6d-2       4Cu6d-1       4Cu6d0        4Cu6d+1       4Cu6d+2       4Cu7d-2       4Cu7d-1       4Cu7d0    
   88    4Cu7d+1       4Cu7d+2       4Cu8d-2       4Cu8d-1       4Cu8d0        4Cu8d+1       4Cu8d+2       4Cu9d-2       4Cu9d-1       4Cu9d0    
   89    4Cu9d+1       4Cu9d+2       4Cu10d-2      4Cu10d-1      4Cu10d0       4Cu10d+1      4Cu10d+2      4Cu11d-2      4Cu11d-1      4Cu11d0   
   90    4Cu11d+1      4Cu11d+2      4Cu1f-3       4Cu1f-2       4Cu1f-1       4Cu1f0        4Cu1f+1       4Cu1f+2       4Cu1f+3       4Cu2f-3   
   91    4Cu2f-2       4Cu2f-1       4Cu2f0        4Cu2f+1       4Cu2f+2       4Cu2f+3       4Cu3f-3       4Cu3f-2       4Cu3f-1       4Cu3f0    
   92    4Cu3f+1       4Cu3f+2       4Cu3f+3       4Cu4f-3       4Cu4f-2       4Cu4f-1       4Cu4f0        4Cu4f+1       4Cu4f+2       4Cu4f+3   
   93    4Cu5f-3       4Cu5f-2       4Cu5f-1       4Cu5f0        4Cu5f+1       4Cu5f+2       4Cu5f+3       4Cu6f-3       4Cu6f-2       4Cu6f-1   
   94    4Cu6f0        4Cu6f+1       4Cu6f+2       4Cu6f+3       4Cu7f-3       4Cu7f-2       4Cu7f-1       4Cu7f0        4Cu7f+1       4Cu7f+2   
   95    4Cu7f+3       4Cu8f-3       4Cu8f-2       4Cu8f-1       4Cu8f0        4Cu8f+1       4Cu8f+2       4Cu8f+3       4Cu9f-3       4Cu9f-2   
   96    4Cu9f-1       4Cu9f0        4Cu9f+1       4Cu9f+2       4Cu9f+3       4Cu1g-4       4Cu1g-3       4Cu1g-2       4Cu1g-1       4Cu1g0    
   97    4Cu1g+1       4Cu1g+2       4Cu1g+3       4Cu1g+4       4Cu2g-4       4Cu2g-3       4Cu2g-2       4Cu2g-1       4Cu2g0        4Cu2g+1   
   98    4Cu2g+2       4Cu2g+3       4Cu2g+4       4Cu3g-4       4Cu3g-3       4Cu3g-2       4Cu3g-1       4Cu3g0        4Cu3g+1       4Cu3g+2   
   99    4Cu3g+3       4Cu3g+4       4Cu4g-4       4Cu4g-3       4Cu4g-2       4Cu4g-1       4Cu4g0        4Cu4g+1       4Cu4g+2       4Cu4g+3   
  100    4Cu4g+4       4Cu5g-4       4Cu5g-3       4Cu5g-2       4Cu5g-1       4Cu5g0        4Cu5g+1       4Cu5g+2       4Cu5g+3       4Cu5g+4   
  101    4Cu1h-5       4Cu1h-4       4Cu1h-3       4Cu1h-2       4Cu1h-1       4Cu1h0        4Cu1h+1       4Cu1h+2       4Cu1h+3       4Cu1h+4   
  102    4Cu1h+5       4Cu2h-5       4Cu2h-4       4Cu2h-3       4Cu2h-2       4Cu2h-1       4Cu2h0        4Cu2h+1       4Cu2h+2       4Cu2h+3   
  103    4Cu2h+4       4Cu2h+5       4Cu3h-5       4Cu3h-4       4Cu3h-3       4Cu3h-2       4Cu3h-1       4Cu3h0        4Cu3h+1       4Cu3h+2   
  104    4Cu3h+3       4Cu3h+4       4Cu3h+5       4Cu1i-6       4Cu1i-5       4Cu1i-4       4Cu1i-3       4Cu1i-2       4Cu1i-1       4Cu1i0    
  105    4Cu1i+1       4Cu1i+2       4Cu1i+3       4Cu1i+4       4Cu1i+5       4Cu1i+6   
 
 Maximum number of basis functions per shell:   63
 Total number of basis functions:   1056
 
 
 Effective core potentials:
 
   4  Cu mcdhf-ecp-10        
 
 Initializing the SAD routines for the initial guess...
 Checking the files required for the initial guess...
 Atomic density files have been found for the atoms with the following serial numbers:
  
 Atomic density files have not been found for the atoms with the following serial numbers:
  4
 Generating SCFDENSITIES.Cu.def2-svp.0
 CPU time [min]:     0.080                   Wall time [min]:     0.173
 
 Character table for point group C1:
 
          E  
    A     1
 
 Number of basis functions per irrep:
    A     124
 
 
 Calculation of overlap integrals...
 CPU time [min]:     0.083                   Wall time [min]:     0.174
 
 Calculation of the square root of the overlap matrix...
 Minimum eigenvalue of the overlap matrix: 0.258902E-01
 CPU time [min]:     0.094                   Wall time [min]:     0.174
 
 Calculation of kinetic energy integrals...
 CPU time [min]:     0.095                   Wall time [min]:     0.174
 Calculation of dipole moment integrals...
 CPU time [min]:     0.096                   Wall time [min]:     0.174
 Calculation of nuclear attraction integrals...
 CPU time [min]:     0.098                   Wall time [min]:     0.174
 Calculation of core potential integrals...
 CPU time [min]:     0.173                   Wall time [min]:     0.193
 
 Calculation of prescreening integrals...
 CPU time [min]:     0.373                   Wall time [min]:     0.202
 
 Calculation of two-center Coulomb integrals...
   1% done.
  13% done.
  24% done.
  37% done.
  50% done.
  64% done.
  84% done.
  98% done.
 100% done.
 CPU time [min]:     0.384                   Wall time [min]:     0.202
 
 Cholesky decomposition of the two-center matrix...
 Reciprocal of the condition number:  0.657568E-05
 CPU time [min]:     0.430                   Wall time [min]:     0.204
 
 
 Running small-basis SCF...

 ************************ 2022-11-12 13:27:25 *************************
 Executing scf...

 @scfsetup: integrals calculated directly
            mrcc/integ direct run
 @scfsetup: calculating on full matrices
            not using symmetry adapted basis
 @scfsetup: diis switched on
 @scfsetup: number of steps to extrapolate from  10
 @scfsetup: tolerance in energy deviation    0.100000E-05
            tolerance in density deviation    0.100000E-06
 @scfsetup: maximum number of iterations:  50
 @scfsetup: unrestricted hf calc
 @scfsetup: starting scf from superposition of atomic densities
 @scfsetup: occupation set:
            from initial orbitals
 @scfsetup: Parameter-set for SCF acceleration: difficult
 @scfsetup: diis runs from iteration:   2
 @scfsetup: diis runs to iteration:  50
 @scfsetup: diis runs in every iteration
 @scfsetup: diiswatch is disabled                   
 @scfsetup: diis dtol criteria to switch on:      0.0000E+00
           (or the iteration number below is reached)
 @scfsetup: damping is turned off.
 @scfsetup: dynamic level shifting
            tolarance in HOMO-LUMO gap:  0.200
            tolarance in density deviation:     0.0000E+00
            iteration step criteria to turn level shifting off: 8
 Allocation of 150.0 Gbytes of memory...
 ======================================================================
 ITERATION STEP   1
 CPU time [min]:     0.034                   Wall time [min]:     0.007
 

 SCF control                  : initial
 Damping factor/level shift   : 0.000/0.200
 DIIS [start/end/frequency]   :   2 / 50 /  1

 Constructing alpha Fock-matrix...
 
 Pipek-Mezey localization...
 Step  Convergence
   1   0.013888753051
   2   0.000000130092
 CPU time [min]:     0.052                   Wall time [min]:     0.008
 
 Constructing local fitting domains...
 Maximum number of atoms in fitting domains:    4
 Average number of atoms in fitting domains:    4.0
 
 First step of Coulomb + first step of exchange...
 Exchange contribution is evaluated for MOs 1 to 10.
   1% done.
  13% done.
  25% done.
  38% done.
  56% done.
  75% done.
  89% done.
 100% done.
 CPU time [min]:     0.129                   Wall time [min]:     0.011
 
 Fitting and assembly step of exchange...
 CPU time [min]:     0.132                   Wall time [min]:     0.011
 
 Constructing beta Fock-matrix...
 
 Pipek-Mezey localization...
 Step  Convergence
   1   0.000000000000
 CPU time [min]:     0.148                   Wall time [min]:     0.012
 
 Constructing local fitting domains...
 Maximum number of atoms in fitting domains:    4
 Average number of atoms in fitting domains:    4.0
 
 Second step of Coulomb + first step of exchange...
 Exchange contribution is evaluated for MOs 1 to 9.
   1% done.
  13% done.
  25% done.
  38% done.
  56% done.
  75% done.
  89% done.
 100% done.
 CPU time [min]:     0.213                   Wall time [min]:     0.015
 
 Fitting and assembly step of exchange...
 CPU time [min]:     0.215                   Wall time [min]:     0.015
 
 Gradient norm:      2.0786E+00
 RMS of alpha [F,P] :                                  0.01707115631796
 RMS of beta  [F,P] :                                  0.01703147538869
 RMS of alpha difference density:                      0.17894631722276
 RMS of beta  difference density:                      0.17399540705342
 Gap [au]:  0.03452979
 ALPHA OCC:  10
 BETA  OCC:   9
 
 ***HARTREE-FOCK ENERGY IN STEP   1 IS       -192.2291504214830695 [AU]
 ======================================================================
 ITERATION STEP   2
 CPU time [min]:     0.224                   Wall time [min]:     0.015
 

 SCF control                  : diis
 Damping factor/level shift   : 0.000/0.200
 DIIS [start/end/frequency]   :   2 / 50 /  1

 Constructing alpha Fock-matrix...
 Inverse square root: The matrix is not positive definite!
 
 Pipek-Mezey localization...
 Step  Convergence
   1   1.566700160031
   2   0.302684376599
   3   0.054488619027
   4   0.000617103656
   5   0.000000180979
 CPU time [min]:     0.241                   Wall time [min]:     0.016
 
 Constructing local fitting domains...
 Maximum number of atoms in fitting domains:    4
 Average number of atoms in fitting domains:    4.0
 
 First step of Coulomb + first step of exchange...
 Exchange contribution is evaluated for MOs 1 to 10.
   1% done.
  13% done.
  25% done.
  38% done.
  56% done.
  75% done.
  89% done.
 100% done.
 CPU time [min]:     0.315                   Wall time [min]:     0.019
 
 Fitting and assembly step of exchange...
 CPU time [min]:     0.317                   Wall time [min]:     0.019
 
 Constructing beta Fock-matrix...
 Inverse square root: The matrix is not positive definite!
 
 Pipek-Mezey localization...
 Step  Convergence
   1   0.932061022152
   2   0.133944008878
   3   0.014244070122
   4   0.024571672046
   5   0.000000479188
 CPU time [min]:     0.328                   Wall time [min]:     0.020
 
 Constructing local fitting domains...
 Maximum number of atoms in fitting domains:    4
 Average number of atoms in fitting domains:    4.0
 
 Second step of Coulomb + first step of exchange...
 Exchange contribution is evaluated for MOs 1 to 9.
   1% done.
  13% done.
  25% done.
  38% done.
  56% done.
  75% done.
  89% done.
 100% done.
 CPU time [min]:     0.416                   Wall time [min]:     0.024
 
 Fitting and assembly step of exchange...
 CPU time [min]:     0.417                   Wall time [min]:     0.024
 
 Gradient norm:      4.1366E+00
 DIIS is running in this iteration step.
 RMS of alpha [F,P] :                                  0.04758026120923
 RMS of beta  [F,P] :                                  0.04490921606472
 RMS of alpha difference density:                      0.18308588872143
 RMS of beta  difference density:                      0.17433896963503
 Gap [au]:  0.37290104
 ALPHA OCC:  10
 BETA  OCC:   9
 
 ***HARTREE-FOCK ENERGY IN STEP   2 IS       -156.4725130248511391 [AU]
 
 Step comparison  Energy Drift [au]  DIIS error drift  Gradient drift
        1           -3.5757E+01        -4.1313E-02      -2.0580E+00
        2            1.5647E+02         1.0000E-07      -2.0580E+00
 Warning! The energy goes uphill (with respect to previous step).
 Warning! The gradient goes uphill (with respect to previous step).
 Warning! The gradient goes uphill (with respect to step   1 ).
 ======================================================================
 ITERATION STEP   3
 CPU time [min]:     0.458                   Wall time [min]:     0.026
 

 SCF control                  : diis
 Damping factor/level shift   : 0.000/0.000
 DIIS [start/end/frequency]   :   2 / 50 /  1

 Constructing alpha Fock-matrix...
 Inverse square root: The matrix is not positive definite!
 
 Pipek-Mezey localization...
 Step  Convergence
   1   0.058541449085
   2   0.029881595686
   3   0.000000000047
 CPU time [min]:     0.478                   Wall time [min]:     0.027
 
 Constructing local fitting domains...
 Local fitting domains are unchanged.
 
 First step of Coulomb + first step of exchange...
 Exchange contribution is evaluated for MOs 1 to 10.
   1% done.
  13% done.
  25% done.
  38% done.
  56% done.
  75% done.
  89% done.
 100% done.
 CPU time [min]:     0.553                   Wall time [min]:     0.030
 
 Fitting and assembly step of exchange...
 CPU time [min]:     0.554                   Wall time [min]:     0.030
 
 Constructing beta Fock-matrix...
 Inverse square root: The matrix is not positive definite!
 
 Pipek-Mezey localization...
 Step  Convergence
   1   0.000000000000
 CPU time [min]:     0.568                   Wall time [min]:     0.031
 
 Constructing local fitting domains...
 Local fitting domains are unchanged.
 
 Second step of Coulomb + first step of exchange...
 Exchange contribution is evaluated for MOs 1 to 9.
   1% done.
  13% done.
  25% done.
  38% done.
  56% done.
  75% done.
  89% done.
 100% done.
 CPU time [min]:     0.640                   Wall time [min]:     0.034
 
 Fitting and assembly step of exchange...
 CPU time [min]:     0.641                   Wall time [min]:     0.034
 
 Gradient norm:      4.2157E+00
 DIIS is running in this iteration step.
 RMS of alpha [F,P] :                                  0.03210418633063
 RMS of beta  [F,P] :                                  0.03150300787033
 RMS of alpha difference density:                      0.01658806724537
 RMS of beta  difference density:                      0.00722954139287
 Gap [au]:  0.46366402
 ALPHA OCC:  10
 BETA  OCC:   9
 
 ***HARTREE-FOCK ENERGY IN STEP   3 IS       -189.5698076044400864 [AU]
 
 Step comparison  Energy Drift [au]  DIIS error drift  Gradient drift
        2            3.3097E+01         2.0448E-02      -7.9073E-02
 Warning! The gradient goes uphill (with respect to previous step).
 Warning! The gradient goes uphill (with respect to step   1 ).
 ======================================================================
 ITERATION STEP   4
 CPU time [min]:     0.654                   Wall time [min]:     0.034
 

 SCF control                  : diis
 Damping factor/level shift   : 0.000/0.000
 DIIS [start/end/frequency]   :   2 / 50 /  1

 Constructing alpha Fock-matrix...
 
 Pipek-Mezey localization...
 Step  Convergence
   1   0.031734090137
   2   0.029909414393
   3   0.000000000143
 CPU time [min]:     0.672                   Wall time [min]:     0.035
 
 Constructing local fitting domains...
 Local fitting domains are unchanged.
 
 First step of Coulomb + first step of exchange...
 Exchange contribution is evaluated for MOs 1 to 10.
   1% done.
  13% done.
  25% done.
  38% done.
  56% done.
  75% done.
  89% done.
 100% done.
 CPU time [min]:     0.747                   Wall time [min]:     0.038
 
 Fitting and assembly step of exchange...
 CPU time [min]:     0.748                   Wall time [min]:     0.039
 
 Constructing beta Fock-matrix...
 
 Pipek-Mezey localization...
 Step  Convergence
   1   0.000000000000
 CPU time [min]:     0.761                   Wall time [min]:     0.039
 
 Constructing local fitting domains...
 Local fitting domains are unchanged.
 
 Second step of Coulomb + first step of exchange...
 Exchange contribution is evaluated for MOs 1 to 9.
   1% done.
  13% done.
  25% done.
  38% done.
  56% done.
  75% done.
  89% done.
 100% done.
 CPU time [min]:     0.868                   Wall time [min]:     0.044
 
 Fitting and assembly step of exchange...
 CPU time [min]:     0.870                   Wall time [min]:     0.044
 
 Gradient norm:      2.2229E+00
 DIIS is running in this iteration step.
 RMS of alpha [F,P] :                                  0.01785208635435
 RMS of beta  [F,P] :                                  0.01766121730698
 RMS of alpha difference density:                      0.01316114206459
 RMS of beta  difference density:                      0.00513805338000
 Gap [au]:  0.42789951
 ALPHA OCC:  10
 BETA  OCC:   9
 
 ***HARTREE-FOCK ENERGY IN STEP   4 IS       -192.5013761053171777 [AU]
 
 Step comparison  Energy Drift [au]  DIIS error drift  Gradient drift
        3            2.9316E+00         1.9867E-02       1.9928E+00
 Warning! The gradient goes uphill (with respect to step   1 ).
 ======================================================================
 ITERATION STEP   5
 CPU time [min]:     0.884                   Wall time [min]:     0.044
 

 SCF control                  : diis
 Damping factor/level shift   : 0.000/0.000
 DIIS [start/end/frequency]   :   2 / 50 /  1

 Constructing alpha Fock-matrix...
 
 Pipek-Mezey localization...
 Step  Convergence
   1   0.031922925856
   2   0.029877121125
   3   0.000000008551
 CPU time [min]:     0.902                   Wall time [min]:     0.045
 
 Constructing local fitting domains...
 Local fitting domains are unchanged.
 
 First step of Coulomb + first step of exchange...
 Exchange contribution is evaluated for MOs 1 to 10.
   1% done.
  13% done.
  25% done.
  38% done.
  56% done.
  75% done.
  89% done.
 100% done.
 CPU time [min]:     0.973                   Wall time [min]:     0.048
 
 Fitting and assembly step of exchange...
 CPU time [min]:     0.975                   Wall time [min]:     0.048
 
 Constructing beta Fock-matrix...
 
 Pipek-Mezey localization...
 Step  Convergence
   1   0.000000000000
 CPU time [min]:     0.990                   Wall time [min]:     0.049
 
 Constructing local fitting domains...
 Local fitting domains are unchanged.
 
 Second step of Coulomb + first step of exchange...
 Exchange contribution is evaluated for MOs 1 to 9.
   1% done.
  13% done.
  25% done.
  38% done.
  56% done.
  75% done.
  89% done.
 100% done.
 CPU time [min]:     1.063                   Wall time [min]:     0.052
 
 Fitting and assembly step of exchange...
 CPU time [min]:     1.065                   Wall time [min]:     0.052
 
 Gradient norm:      7.9982E-01
 DIIS is running in this iteration step.
 RMS of alpha [F,P] :                                  0.00596215474067
 RMS of beta  [F,P] :                                  0.00571353584467
 RMS of alpha difference density:                      0.01086908387518
 RMS of beta  difference density:                      0.00205705479292
 Gap [au]:  0.27403978
 ALPHA OCC:  10
 BETA  OCC:   9
 
 ***HARTREE-FOCK ENERGY IN STEP   5 IS       -194.0773493819808664 [AU]
 
 Step comparison  Energy Drift [au]  DIIS error drift  Gradient drift
        4            1.5760E+00         1.6854E-02       1.4230E+00
 ======================================================================
 ITERATION STEP   6
 CPU time [min]:     1.080                   Wall time [min]:     0.053
 

 SCF control                  : diis
 Damping factor/level shift   : 0.000/0.000
 DIIS [start/end/frequency]   :   2 / 50 /  1

 Constructing alpha Fock-matrix...
 
 Pipek-Mezey localization...
 Step  Convergence
   1   0.011161591594
   2   0.009967496599
   3   0.000000000133
 CPU time [min]:     1.096                   Wall time [min]:     0.054
 
 Constructing local fitting domains...
 Local fitting domains are unchanged.
 
 First step of Coulomb + first step of exchange...
 Exchange contribution is evaluated for MOs 1 to 10.
   1% done.
  13% done.
  25% done.
  38% done.
  56% done.
  75% done.
  89% done.
 100% done.
 CPU time [min]:     1.170                   Wall time [min]:     0.057
 
 Fitting and assembly step of exchange...
 CPU time [min]:     1.172                   Wall time [min]:     0.057
 
 Constructing beta Fock-matrix...
 
 Pipek-Mezey localization...
 Step  Convergence
   1   0.000000000000
 CPU time [min]:     1.183                   Wall time [min]:     0.057
 
 Constructing local fitting domains...
 Local fitting domains are unchanged.
 
 Second step of Coulomb + first step of exchange...
 Exchange contribution is evaluated for MOs 1 to 9.
   1% done.
  13% done.
  25% done.
  38% done.
  56% done.
  75% done.
  89% done.
 100% done.
 CPU time [min]:     1.253                   Wall time [min]:     0.060
 
 Fitting and assembly step of exchange...
 CPU time [min]:     1.254                   Wall time [min]:     0.060
 
 Gradient norm:      8.4928E-02
 DIIS is running in this iteration step.
 RMS of alpha [F,P] :                                  0.00058362395332
 RMS of beta  [F,P] :                                  0.00043026002125
 RMS of alpha difference density:                      0.00281496606416
 RMS of beta  difference density:                      0.00027738216561
 Gap [au]:  0.27778328
 ALPHA OCC:  10
 BETA  OCC:   9
 
 ***HARTREE-FOCK ENERGY IN STEP   6 IS       -194.2523412722932221 [AU]
 
 Step comparison  Energy Drift [au]  DIIS error drift  Gradient drift
        5            1.7499E-01         7.5328E-03       7.1489E-01
 ======================================================================
 ITERATION STEP   7
 CPU time [min]:     1.263                   Wall time [min]:     0.061
 

 SCF control                  : diis
 Damping factor/level shift   : 0.000/0.000
 DIIS [start/end/frequency]   :   2 / 50 /  1

 Constructing alpha Fock-matrix...
 
 Pipek-Mezey localization...
 Step  Convergence
   1   0.039981984499
   2   0.039865230395
   3   0.000001131338
   4   0.000000000039
 CPU time [min]:     1.280                   Wall time [min]:     0.062
 
 Constructing local fitting domains...
 Local fitting domains are unchanged.
 
 First step of Coulomb + first step of exchange...
 Exchange contribution is evaluated for MOs 1 to 10.
   1% done.
  13% done.
  25% done.
  38% done.
  56% done.
  75% done.
  89% done.
 100% done.
 CPU time [min]:     1.354                   Wall time [min]:     0.065
 
 Fitting and assembly step of exchange...
 CPU time [min]:     1.356                   Wall time [min]:     0.065
 
 Constructing beta Fock-matrix...
 
 Pipek-Mezey localization...
 Step  Convergence
   1   0.000000000000
 CPU time [min]:     1.368                   Wall time [min]:     0.065
 
 Constructing local fitting domains...
 Local fitting domains are unchanged.
 
 Second step of Coulomb + first step of exchange...
 Exchange contribution is evaluated for MOs 1 to 9.
   1% done.
  13% done.
  25% done.
  38% done.
  56% done.
  75% done.
  89% done.
 100% done.
 CPU time [min]:     1.441                   Wall time [min]:     0.069
 
 Fitting and assembly step of exchange...
 CPU time [min]:     1.443                   Wall time [min]:     0.069
 
 Gradient norm:      2.9657E-02
 DIIS is running in this iteration step.
 RMS of alpha [F,P] :                                  0.00016039928626
 RMS of beta  [F,P] :                                  0.00010998142542
 RMS of alpha difference density:                      0.00099706151092
 RMS of beta  difference density:                      0.00005041073577
 Gap [au]:  0.27462006
 ALPHA OCC:  10
 BETA  OCC:   9
 
 ***HARTREE-FOCK ENERGY IN STEP   7 IS       -194.2565612780949493 [AU]
 
 Step comparison  Energy Drift [au]  DIIS error drift  Gradient drift
        6            4.2200E-03         5.3060E-04       5.5272E-02
 ======================================================================
 ITERATION STEP   8
 CPU time [min]:     1.454                   Wall time [min]:     0.069
 

 SCF control                  : diis
 Damping factor/level shift   : 0.000/0.000
 DIIS [start/end/frequency]   :   2 / 50 /  1

 Constructing alpha Fock-matrix...
 
 Pipek-Mezey localization...
 Step  Convergence
   1   0.078328542764
   2   0.030050289701
   3   0.000000704376
   4   0.000000000382
 CPU time [min]:     1.471                   Wall time [min]:     0.070
 
 Constructing local fitting domains...
 Local fitting domains are unchanged.
 
 First step of Coulomb + first step of exchange...
 Exchange contribution is evaluated for MOs 1 to 10.
   1% done.
  13% done.
  25% done.
  38% done.
  56% done.
  75% done.
  89% done.
 100% done.
 CPU time [min]:     1.542                   Wall time [min]:     0.073
 
 Fitting and assembly step of exchange...
 CPU time [min]:     1.543                   Wall time [min]:     0.073
 
 Constructing beta Fock-matrix...
 
 Pipek-Mezey localization...
 Step  Convergence
   1   0.000000000000
 CPU time [min]:     1.556                   Wall time [min]:     0.074
 
 Constructing local fitting domains...
 Local fitting domains are unchanged.
 
 Second step of Coulomb + first step of exchange...
 Exchange contribution is evaluated for MOs 1 to 9.
   1% done.
  13% done.
  25% done.
  38% done.
  56% done.
  75% done.
  89% done.
 100% done.
 CPU time [min]:     1.624                   Wall time [min]:     0.076
 
 Fitting and assembly step of exchange...
 CPU time [min]:     1.626                   Wall time [min]:     0.077
 
 Gradient norm:      7.8469E-03
 DIIS is running in this iteration step.
 RMS of alpha [F,P] :                                  0.00004674107813
 RMS of beta  [F,P] :                                  0.00004542200505
 RMS of alpha difference density:                      0.00032970542639
 RMS of beta  difference density:                      0.00003754349772
 Gap [au]:  0.27303437
 ALPHA OCC:  10
 BETA  OCC:   9
 
 ***HARTREE-FOCK ENERGY IN STEP   8 IS       -194.2571222042913917 [AU]
 
 Step comparison  Energy Drift [au]  DIIS error drift  Gradient drift
        7            5.6093E-04         1.2931E-04       2.1810E-02
 ======================================================================
 ITERATION STEP   9
 CPU time [min]:     1.637                   Wall time [min]:     0.077
 

 SCF control                  : diis
 Damping factor/level shift   : 0.000/0.000
 DIIS [start/end/frequency]   :   2 / 50 /  1

 Constructing alpha Fock-matrix...
 
 Pipek-Mezey localization...
 Step  Convergence
   1   1.702851447984
   2   0.998542452106
   3   0.552153590779
   4   0.236693468414
   5   0.015668658157
   6   0.001752523574
   7   0.000309695493
   8   0.000043191365
   9   0.000010971089
  10   0.000001521216
  11   0.000000373146
  12   0.000000058990
  13   0.000000012928
  14   0.000000002252
  15   0.000000000457
  16   0.000000000084
  17   0.000000000016
  18   0.000000000003
  19   0.000000000001
 CPU time [min]:     1.654                   Wall time [min]:     0.078
 
 Constructing local fitting domains...
 Local fitting domains are unchanged.
 
 First step of Coulomb + first step of exchange...
 Exchange contribution is evaluated for MOs 1 to 10.
   1% done.
  13% done.
  25% done.
  38% done.
  56% done.
  75% done.
  89% done.
 100% done.
 CPU time [min]:     1.725                   Wall time [min]:     0.081
 
 Fitting and assembly step of exchange...
 CPU time [min]:     1.726                   Wall time [min]:     0.081
 
 Constructing beta Fock-matrix...
 
 Pipek-Mezey localization...
 Step  Convergence
   1   2.304175233094
   2   1.004692453487
   3   0.208935750869
   4   0.002603536355
   5   0.000029989511
   6   0.000000404744
   7   0.000000024036
   8   0.000000001182
   9   0.000000000109
  10   0.000000000005
  11   0.000000000001
 CPU time [min]:     1.738                   Wall time [min]:     0.082
 
 Constructing local fitting domains...
 Local fitting domains are unchanged.
 
 Second step of Coulomb + first step of exchange...
 Exchange contribution is evaluated for MOs 1 to 9.
   1% done.
  13% done.
  25% done.
  38% done.
  56% done.
  75% done.
  89% done.
 100% done.
 CPU time [min]:     1.808                   Wall time [min]:     0.084
 
 Fitting and assembly step of exchange...
 CPU time [min]:     1.810                   Wall time [min]:     0.085
 
 Gradient norm:      1.8372E-03
 DIIS is running in this iteration step.
 RMS of alpha [F,P] :                                  0.00000910036286
 RMS of beta  [F,P] :                                  0.00001448411481
 RMS of alpha difference density:                      0.00005144024121
 RMS of beta  difference density:                      0.00002708365067
 Gap [au]:  0.27272964
 ALPHA OCC:  10
 BETA  OCC:   9
 
 ***HARTREE-FOCK ENERGY IN STEP   9 IS       -194.2571853180556047 [AU]
 
 Step comparison  Energy Drift [au]  DIIS error drift  Gradient drift
        8            6.3114E-05         4.8070E-05       6.0097E-03
 ======================================================================
 ITERATION STEP  10
 CPU time [min]:     1.821                   Wall time [min]:     0.085
 

 SCF control                  : diis
 Damping factor/level shift   : 0.000/0.000
 DIIS [start/end/frequency]   :   2 / 50 /  1

 Constructing alpha Fock-matrix...
 
 Pipek-Mezey localization...
 Step  Convergence
   1   0.051277253372
   2   0.812216020143
   3   0.528288844645
   4   0.236705614724
   5   0.013808808696
   6   0.002391495201
   7   0.000413728004
   8   0.000071776743
   9   0.000014973809
  10   0.000002600634
  11   0.000000545502
  12   0.000000098266
  13   0.000000019958
  14   0.000000003720
  15   0.000000000741
  16   0.000000000141
  17   0.000000000028
  18   0.000000000005
  19   0.000000000001
  20   0.000000000000
 CPU time [min]:     1.838                   Wall time [min]:     0.086
 
 Constructing local fitting domains...
 Local fitting domains are unchanged.
 
 First step of Coulomb + first step of exchange...
 Exchange contribution is evaluated for MOs 1 to 10.
   1% done.
  13% done.
  25% done.
  38% done.
  56% done.
  75% done.
  89% done.
 100% done.
 CPU time [min]:     1.910                   Wall time [min]:     0.089
 
 Fitting and assembly step of exchange...
 CPU time [min]:     1.911                   Wall time [min]:     0.089
 
 Constructing beta Fock-matrix...
 
 Pipek-Mezey localization...
 Step  Convergence
   1   0.080157197316
   2   0.071295867308
   3   0.013019501632
   4   0.000055546428
   5   0.000005899925
   6   0.000000126396
   7   0.000000021945
   8   0.000000000442
   9   0.000000000085
  10   0.000000000002
  11   0.000000000000
 CPU time [min]:     1.925                   Wall time [min]:     0.090
 
 Constructing local fitting domains...
 Local fitting domains are unchanged.
 
 Second step of Coulomb + first step of exchange...
 Exchange contribution is evaluated for MOs 1 to 9.
   1% done.
  13% done.
  25% done.
  38% done.
  56% done.
  75% done.
  89% done.
 100% done.
 CPU time [min]:     1.997                   Wall time [min]:     0.093
 
 Fitting and assembly step of exchange...
 CPU time [min]:     1.998                   Wall time [min]:     0.093
 
 Gradient norm:      6.9732E-04
 DIIS is running in this iteration step.
 RMS of alpha [F,P] :                                  0.00000507988528
 RMS of beta  [F,P] :                                  0.00000542345025
 RMS of alpha difference density:                      0.00003143573729
 RMS of beta  difference density:                      0.00002118270323
 Gap [au]:  0.27290646
 ALPHA OCC:  10
 BETA  OCC:   9
 
 ***HARTREE-FOCK ENERGY IN STEP  10 IS       -194.2571920050987444 [AU]
 
 Step comparison  Energy Drift [au]  DIIS error drift  Gradient drift
        9            6.6870E-06         9.6748E-06       1.1399E-03
 ======================================================================
 ITERATION STEP  11
 CPU time [min]:     2.010                   Wall time [min]:     0.093
 

 SCF control                  : diis
 Damping factor/level shift   : 0.000/0.000
 DIIS [start/end/frequency]   :   2 / 50 /  1

 Constructing alpha Fock-matrix...
 
 Pipek-Mezey localization...
 Step  Convergence
   1   0.081196655066
   2   0.899442728112
   3   0.314593706228
   4   0.113152054877
   5   0.015026183301
   6   0.000796159052
   7   0.000282289552
   8   0.000024136175
   9   0.000007277403
  10   0.000000973853
  11   0.000000229607
  12   0.000000038796
  13   0.000000008025
  14   0.000000001496
  15   0.000000000294
  16   0.000000000057
  17   0.000000000012
  18   0.000000000003
  19   0.000000000000
 CPU time [min]:     2.029                   Wall time [min]:     0.094
 
 Constructing local fitting domains...
 Local fitting domains are unchanged.
 
 First step of Coulomb + first step of exchange...
 Exchange contribution is evaluated for MOs 1 to 10.
   1% done.
  13% done.
  25% done.
  38% done.
  56% done.
  75% done.
  89% done.
 100% done.
 CPU time [min]:     2.101                   Wall time [min]:     0.097
 
 Fitting and assembly step of exchange...
 CPU time [min]:     2.103                   Wall time [min]:     0.097
 
 Constructing beta Fock-matrix...
 
 Pipek-Mezey localization...
 Step  Convergence
   1   0.050158433279
   2   0.058036601805
   3   0.001421698838
   4   0.000082954987
   5   0.000002045974
   6   0.000000199399
   7   0.000000004717
   8   0.000000000649
   9   0.000000000015
  10   0.000000000002
  11   0.000000000000
 CPU time [min]:     2.114                   Wall time [min]:     0.098
 
 Constructing local fitting domains...
 Local fitting domains are unchanged.
 
 Second step of Coulomb + first step of exchange...
 Exchange contribution is evaluated for MOs 1 to 9.
   1% done.
  13% done.
  25% done.
  38% done.
  56% done.
  75% done.
  89% done.
 100% done.
 CPU time [min]:     2.184                   Wall time [min]:     0.101
 
 Fitting and assembly step of exchange...
 CPU time [min]:     2.186                   Wall time [min]:     0.101
 
 Gradient norm:      3.1915E-04
 DIIS is running in this iteration step.
 RMS of alpha [F,P] :                                  0.00000157462105
 RMS of beta  [F,P] :                                  0.00000256052767
 RMS of alpha difference density:                      0.00000862024492
 RMS of beta  difference density:                      0.00000886247283
 Gap [au]:  0.27290437
 ALPHA OCC:  10
 BETA  OCC:   9
 
 ***HARTREE-FOCK ENERGY IN STEP  11 IS       -194.2571936043575249 [AU]
 
 Step comparison  Energy Drift [au]  DIIS error drift  Gradient drift
       10            1.5993E-06         4.4250E-06       3.7817E-04
 ======================================================================
 ITERATION STEP  12
 CPU time [min]:     2.198                   Wall time [min]:     0.102
 

 SCF control                  : diis
 Damping factor/level shift   : 0.000/0.000
 DIIS [start/end/frequency]   :   2 / 50 /  1

 Constructing alpha Fock-matrix...
 
 Pipek-Mezey localization...
 Step  Convergence
   1   0.123222923023
   2   1.838070869568
   3   0.658452340089
   4   1.108949968172
   5   0.445510777364
   6   0.401308761502
   7   0.002573511279
   8   0.000248531937
   9   0.000027583524
  10   0.000003769762
  11   0.000000468298
  12   0.000000062687
  13   0.000000008152
  14   0.000000001088
  15   0.000000000146
  16   0.000000000019
  17   0.000000000003
  18   0.000000000000
 CPU time [min]:     2.215                   Wall time [min]:     0.102
 
 Constructing local fitting domains...
 Local fitting domains are unchanged.
 
 First step of Coulomb + first step of exchange...
 Exchange contribution is evaluated for MOs 1 to 10.
   1% done.
  13% done.
  25% done.
  38% done.
  56% done.
  75% done.
  89% done.
 100% done.
 CPU time [min]:     2.285                   Wall time [min]:     0.105
 
 Fitting and assembly step of exchange...
 CPU time [min]:     2.287                   Wall time [min]:     0.106
 
 Constructing beta Fock-matrix...
 
 Pipek-Mezey localization...
 Step  Convergence
   1   0.080244023054
   2   0.093527887902
   3   0.005676168949
   4   0.000061561947
   5   0.000008614706
   6   0.000000193154
   7   0.000000032248
   8   0.000000000709
   9   0.000000000124
  10   0.000000000003
  11   0.000000000000
 CPU time [min]:     2.299                   Wall time [min]:     0.106
 
 Constructing local fitting domains...
 Local fitting domains are unchanged.
 
 Second step of Coulomb + first step of exchange...
 Exchange contribution is evaluated for MOs 1 to 9.
   1% done.
  13% done.
  25% done.
  38% done.
  56% done.
  75% done.
  89% done.
 100% done.
 CPU time [min]:     2.369                   Wall time [min]:     0.109
 
 Fitting and assembly step of exchange...
 CPU time [min]:     2.370                   Wall time [min]:     0.109
 
 Gradient norm:      1.6333E-04
 DIIS is running in this iteration step.
 RMS of alpha [F,P] :                                  0.00000065556219
 RMS of beta  [F,P] :                                  0.00000083209896
 RMS of alpha difference density:                      0.00000228612970
 RMS of beta  difference density:                      0.00000510095697
 Gap [au]:  0.27294385
 ALPHA OCC:  10
 BETA  OCC:   9
 
 ***HARTREE-FOCK ENERGY IN STEP  12 IS       -194.2571938031533421 [AU]
 
 Step comparison  Energy Drift [au]  DIIS error drift  Gradient drift
       11            1.9880E-07         1.9466E-06       1.5582E-04
 ======================================================================
 ITERATION STEP  13
 CPU time [min]:     2.383                   Wall time [min]:     0.110
 

 SCF control                  : diis
 Damping factor/level shift   : 0.000/0.000
 DIIS [start/end/frequency]   :   2 / 50 /  1

 Constructing alpha Fock-matrix...
 
 Pipek-Mezey localization...
 Step  Convergence
   1   0.111351678452
   2   1.641155106383
   3   0.553440260318
   4   0.905637059088
   5   0.152020627503
   6   0.000699114848
   7   0.000037794332
   8   0.000002354860
   9   0.000000133384
  10   0.000000008691
  11   0.000000000464
  12   0.000000000036
  13   0.000000000003
  14   0.000000000000
 CPU time [min]:     2.401                   Wall time [min]:     0.111
 
 Constructing local fitting domains...
 Local fitting domains are unchanged.
 
 First step of Coulomb + first step of exchange...
 Exchange contribution is evaluated for MOs 1 to 10.
   1% done.
  13% done.
  25% done.
  38% done.
  56% done.
  75% done.
  89% done.
 100% done.
 CPU time [min]:     2.470                   Wall time [min]:     0.113
 
 Fitting and assembly step of exchange...
 CPU time [min]:     2.472                   Wall time [min]:     0.114
 
 Constructing beta Fock-matrix...
 
 Pipek-Mezey localization...
 Step  Convergence
   1   0.060279308060
   2   0.066758663889
   3   0.000777426367
   4   0.000026091240
   5   0.000000778243
   6   0.000000029228
   7   0.000000001239
   8   0.000000000066
   9   0.000000000005
  10   0.000000000000
 CPU time [min]:     2.485                   Wall time [min]:     0.114
 
 Constructing local fitting domains...
 Local fitting domains are unchanged.
 
 Second step of Coulomb + first step of exchange...
 Exchange contribution is evaluated for MOs 1 to 9.
   1% done.
  13% done.
  25% done.
  38% done.
  56% done.
  75% done.
  89% done.
 100% done.
 CPU time [min]:     2.554                   Wall time [min]:     0.117
 
 Fitting and assembly step of exchange...
 CPU time [min]:     2.555                   Wall time [min]:     0.117
 
 Gradient norm:      5.6562E-05
 DIIS is running in this iteration step.
 RMS of alpha [F,P] :                                  0.00000015103583
 RMS of beta  [F,P] :                                  0.00000028313959
 RMS of alpha difference density:                      0.00000048274045
 RMS of beta  difference density:                      0.00000131523352
 Gap [au]:  0.27292497
 ALPHA OCC:  10
 BETA  OCC:   9
 
 ***HARTREE-FOCK ENERGY IN STEP  13 IS       -194.2571938375400293 [AU]
 
 Step comparison  Energy Drift [au]  DIIS error drift  Gradient drift
       12            3.4387E-08         7.3841E-07       1.0677E-04
 ======================================================================
 ITERATION STEP  14
 CPU time [min]:     2.569                   Wall time [min]:     0.118
 

 SCF control                  : diis
 Damping factor/level shift   : 0.000/0.000
 DIIS [start/end/frequency]   :   2 / 50 /  1

 Constructing alpha Fock-matrix...
 
 Pipek-Mezey localization...
 Step  Convergence
   1   0.141113525651
   2   2.527381498621
   3   0.637078779249
   4   0.820905436005
   5   0.046425348759
   6   0.000923134944
   7   0.000102964067
   8   0.000011708167
   9   0.000002401923
  10   0.000000217713
  11   0.000000034106
  12   0.000000004018
  13   0.000000000523
  14   0.000000000072
  15   0.000000000009
  16   0.000000000001
  17   0.000000000000
 CPU time [min]:     2.588                   Wall time [min]:     0.119
 
 Constructing local fitting domains...
 Local fitting domains are unchanged.
 
 First step of Coulomb + first step of exchange...
 Exchange contribution is evaluated for MOs 1 to 10.
   1% done.
  13% done.
  25% done.
  38% done.
  56% done.
  75% done.
  89% done.
 100% done.
 CPU time [min]:     2.658                   Wall time [min]:     0.122
 
 Fitting and assembly step of exchange...
 CPU time [min]:     2.659                   Wall time [min]:     0.122
 
 Constructing beta Fock-matrix...
 
 Pipek-Mezey localization...
 Step  Convergence
   1   0.050927965033
   2   0.057171436940
   3   0.000665410495
   4   0.000024903996
   5   0.000000697396
   6   0.000000032300
   7   0.000000001259
   8   0.000000000089
   9   0.000000000006
  10   0.000000000000
 CPU time [min]:     2.671                   Wall time [min]:     0.122
 
 Constructing local fitting domains...
 Local fitting domains are unchanged.
 
 Second step of Coulomb + first step of exchange...
 Exchange contribution is evaluated for MOs 1 to 9.
   1% done.
  13% done.
  25% done.
  38% done.
  56% done.
  75% done.
  89% done.
 100% done.
 CPU time [min]:     2.740                   Wall time [min]:     0.125
 
 Fitting and assembly step of exchange...
 CPU time [min]:     2.741                   Wall time [min]:     0.125
 
 Gradient norm:      2.3645E-05
 DIIS is running in this iteration step.
 RMS of alpha [F,P] :                                  0.00000009902861
 RMS of beta  [F,P] :                                  0.00000013555843
 RMS of alpha difference density:                      0.00000057709032
 RMS of beta  difference density:                      0.00000087544868
 Gap [au]:  0.27292991
 ALPHA OCC:  10
 BETA  OCC:   9
 
 ***HARTREE-FOCK ENERGY IN STEP  14 IS       -194.2571938410308690 [AU]
 
 Step comparison  Energy Drift [au]  DIIS error drift  Gradient drift
       13            3.4908E-09         1.5303E-07       3.2917E-05
 ======================================================================
 ITERATION STEP  15
 CPU time [min]:     2.754                   Wall time [min]:     0.126
 

 SCF control                  : diis
 Damping factor/level shift   : 0.000/0.000
 DIIS [start/end/frequency]   :   2 / 50 /  1

 Constructing alpha Fock-matrix...
 
 Pipek-Mezey localization...
 Step  Convergence
   1   0.131422402868
   2   1.465807313811
   3   0.549684319044
   4   0.356903730113
   5   0.096745523834
   6   0.002230427174
   7   0.000044596869
   8   0.000004913237
   9   0.000000655646
  10   0.000000078144
  11   0.000000010672
  12   0.000000001336
  13   0.000000000172
  14   0.000000000023
  15   0.000000000003
  16   0.000000000000
 CPU time [min]:     2.772                   Wall time [min]:     0.127
 
 Constructing local fitting domains...
 Local fitting domains are unchanged.
 
 First step of Coulomb + first step of exchange...
 Exchange contribution is evaluated for MOs 1 to 10.
   1% done.
  13% done.
  25% done.
  38% done.
  56% done.
  75% done.
  89% done.
 100% done.
 CPU time [min]:     2.843                   Wall time [min]:     0.130
 
 Fitting and assembly step of exchange...
 CPU time [min]:     2.845                   Wall time [min]:     0.130
 
 Constructing beta Fock-matrix...
 
 Pipek-Mezey localization...
 Step  Convergence
   1   0.101487215621
   2   0.096701342891
   3   0.012483308828
   4   0.000077360108
   5   0.000002700074
   6   0.000000253032
   7   0.000000008559
   8   0.000000001022
   9   0.000000000034
  10   0.000000000004
  11   0.000000000000
 CPU time [min]:     2.856                   Wall time [min]:     0.130
 
 Constructing local fitting domains...
 Local fitting domains are unchanged.
 
 Second step of Coulomb + first step of exchange...
 Exchange contribution is evaluated for MOs 1 to 9.
   1% done.
  13% done.
  25% done.
  38% done.
  56% done.
  75% done.
  89% done.
 100% done.
 CPU time [min]:     2.926                   Wall time [min]:     0.133
 
 Fitting and assembly step of exchange...
 CPU time [min]:     2.927                   Wall time [min]:     0.133
 
 Gradient norm:      5.0844E-06
 DIIS is running in this iteration step.
 RMS of alpha [F,P] :                                  0.00000002527139
 RMS of beta  [F,P] :                                  0.00000003550231
 RMS of alpha difference density:                      0.00000016154418
 RMS of beta  difference density:                      0.00000020107919
 Gap [au]:  0.27292629
 ALPHA OCC:  10
 BETA  OCC:   9
 
 ***HARTREE-FOCK ENERGY IN STEP  15 IS       -194.2571938420365427 [AU]
 
 Step comparison  Energy Drift [au]  DIIS error drift  Gradient drift
       14            1.0057E-09         1.2430E-07       1.8560E-05
 ======================================================================
 ITERATION STEP  16
 CPU time [min]:     2.939                   Wall time [min]:     0.134
 

 SCF control                  : diis
 Damping factor/level shift   : 0.000/0.000
 DIIS [start/end/frequency]   :   2 / 50 /  1

 Constructing alpha Fock-matrix...
 
 Pipek-Mezey localization...
 Step  Convergence
   1   0.113434388537
   2   1.769069407485
   3   0.476110070392
   4   0.132727952575
   5   0.002323094698
   6   0.000110470275
   7   0.000014803728
   8   0.000000384122
   9   0.000000084379
  10   0.000000001416
  11   0.000000000566
  12   0.000000000017
  13   0.000000000005
  14   0.000000000000
 CPU time [min]:     2.956                   Wall time [min]:     0.135
 
 Constructing local fitting domains...
 Local fitting domains are unchanged.
 
 First step of Coulomb + first step of exchange...
 Exchange contribution is evaluated for MOs 1 to 10.
   1% done.
  13% done.
  25% done.
  38% done.
  56% done.
  75% done.
  89% done.
 100% done.
 CPU time [min]:     3.027                   Wall time [min]:     0.138
 
 Fitting and assembly step of exchange...
 CPU time [min]:     3.028                   Wall time [min]:     0.138
 
 Constructing beta Fock-matrix...
 
 Pipek-Mezey localization...
 Step  Convergence
   1   0.081899619774
   2   0.078032508417
   3   0.001493569734
   4   0.000040877489
   5   0.000002324122
   6   0.000000123795
   7   0.000000008946
   8   0.000000000365
   9   0.000000000038
  10   0.000000000002
  11   0.000000000000
 CPU time [min]:     3.041                   Wall time [min]:     0.138
 
 Constructing local fitting domains...
 Local fitting domains are unchanged.
 
 Second step of Coulomb + first step of exchange...
 Exchange contribution is evaluated for MOs 1 to 9.
   1% done.
  13% done.
  25% done.
  38% done.
  56% done.
  75% done.
  89% done.
 100% done.
 CPU time [min]:     3.110                   Wall time [min]:     0.141
 
 Fitting and assembly step of exchange...
 CPU time [min]:     3.111                   Wall time [min]:     0.141
 
 Gradient norm:      1.2837E-06
 DIIS is running in this iteration step.
 RMS of alpha [F,P] :                                  0.00000000986792
 RMS of beta  [F,P] :                                  0.00000000796793
 RMS of alpha difference density:                      0.00000004131990
 RMS of beta  difference density:                      0.00000003498310
 Gap [au]:  0.27292693
 ALPHA OCC:  10
 BETA  OCC:   9
 
 ***HARTREE-FOCK ENERGY IN STEP  16 IS       -194.2571938420961430 [AU]
 
 Step comparison  Energy Drift [au]  DIIS error drift  Gradient drift
       15            5.9600E-11         3.0895E-08       3.8007E-06
 ======================================================================
 
 SUCCESS...
 THE SCF ITERATION HAS CONVERGED!
 
                   A   
 FINAL ALPHA OCC:  10
 FINAL BETA  OCC:   9
 
 ***FINAL HARTREE-FOCK ENERGY:       -194.2571938420961430 [AU]
 
 Expectation value of S^2:  0.7510
 Average multiplicity:      2.0010
 
 Orbital energies [au]:
      Irrep         Alpha          Beta
    1   A         -4.978739      -4.975052
    2   A         -3.193806      -3.196721
    3   A         -3.193687      -3.196672
    4   A         -3.193379      -3.196612
    5   A         -0.465073      -0.465714
    6   A         -0.465038      -0.465639
    7   A         -0.464496      -0.465391
    8   A         -0.463647      -0.464990
    9   A         -0.462253      -0.464151
 
   10   A         -0.235350       0.013022
 
   11   A          0.037577       0.049742
   12   A          0.046993       0.061659
   13   A          0.071048       0.089682
   14   A          0.128757       0.165515
   15   A          0.201266       0.217270
   16   A          0.204438       0.245419
   17   A          0.219090       0.258017
   18   A          0.246916       0.276845
   19   A          0.315948       0.336176
   20   A          0.330975       0.351116
   21   A          0.351487       0.358687
   22   A          0.373898       0.387447
   23   A          0.407281       0.420499
   24   A          0.418751       0.424318
   25   A          0.483955       0.489783
   26   A          0.556257       0.567607
   27   A          0.579180       0.584694
   28   A          0.676647       0.689722
   29   A          0.776529       0.785404
   30   A          1.146542       1.154904
   31   A          1.181309       1.191685
   32   A          1.229658       1.241850
   33   A          1.244700       1.250588
   34   A          1.256149       1.262473
   35   A          1.281129       1.288569
   36   A          1.311468       1.320762
   37   A          1.357544       1.358952
   38   A          1.360243       1.362548
   39   A          1.405842       1.411139
   40   A          1.464512       1.467641
   41   A          1.464885       1.471755
   42   A          1.491924       1.498744
   43   A          1.555232       1.563268
   44   A          1.613104       1.622139
   45   A          1.691103       1.694710
   46   A          1.747701       1.752666
   47   A          1.941137       1.947026
   48   A          1.998622       2.003002
   49   A          2.018594       2.023816
   50   A          2.752785       2.753468
   51   A          2.839857       2.842202
   52   A          2.998343       3.000433
   53   A          5.882514       5.883280
   54   A          5.897716       5.897958
   55   A          5.909016       5.909914
   56   A          5.946550       5.947735
   57   A          5.962001       5.962882
   58   A          6.009678       6.010748
   59   A          6.034359       6.034708
   60   A          6.094560       6.095795
   61   A          6.283131       6.283186
   62   A          6.317501       6.316284
   63   A          6.318220       6.316989
   64   A          6.318562       6.317146
   65   A          6.319610       6.318146
   66   A          6.319920       6.318306
   67   A          6.327121       6.325727
   68   A          6.361765       6.361179
   69   A         10.037381      10.038199
   70   A         10.037424      10.038243
   71   A         10.037965      10.038690
   72   A         10.038789      10.039483
   73   A         10.040308      10.040903
   74   A         10.040538      10.041148
   75   A         10.040592      10.041223
   76   A         10.041660      10.042225
   77   A         10.041675      10.042244
   78   A         10.042642      10.043198
   79   A         10.042954      10.043447
   80   A         10.044613      10.045349
   81   A         10.048781      10.048785
   82   A         10.048781      10.048785
   83   A         10.048801      10.048808
   84   A         10.048804      10.048809
   85   A         10.049205      10.049750
   86   A         10.049730      10.050061
   87   A         10.050131      10.050140
   88   A         10.050476      10.050794
   89   A         10.061940      10.062171
   90   A         13.535792      13.536274
   91   A         13.591176      13.591616
   92   A         13.624125      13.624494
   93   A         13.627409      13.627852
   94   A         13.668864      13.669103
   95   A         13.673266      13.673445
   96   A         13.705180      13.705975
   97   A         13.715239      13.715559
   98   A         13.754453      13.755034
   99   A         13.764164      13.764670
  100   A         13.903941      13.904351
  101   A         13.954851      13.955296
  102   A         13.981596      13.982422
  103   A         14.199715      14.200234
  104   A         14.406029      14.406514
  105   A         25.681480      25.681579
  106   A         25.746957      25.747289
  107   A         25.876486      25.876816
  108   A         85.435277      85.435363
  109   A         85.455615      85.455643
  110   A         85.474564      85.474675
  111   A         85.528398      85.528538
  112   A         85.549251      85.549358
  113   A         85.618696      85.618819
  114   A         85.649464      85.649509
  115   A         85.739166      85.739319
  116   A         86.050025      86.050166
  117   A        100.300295     100.301462
  118   A        108.834563     108.833625
  119   A        108.933083     108.932101
  120   A        109.147302     109.146254
  121   A        315.963587     315.963824
  122   A        473.253876     473.253886
  123   A        473.346973     473.347004
  124   A        473.516020     473.516050
 
 RETURNING FROM SCF ALGORITHM
 ======================================================================

 ************************ 2022-11-12 13:27:33 *************************
 Executing integ...

 Allocation of 150.0 Gbytes of memory...
 
 
 Number of atoms:                  4
 Charge:                           0
 Number of electrons:             19
 Number of core electrons:         8
 Spin multiplicity:                2
 
                 Cartesian coordinates [bohr]      Atomic mass [AMU]  Z
   1  Cu   -1.50328515    4.14022981   -0.15486466     0.000000       0
   2  Cu   -1.94664693   -4.14022981   -1.71968418     0.000000       0
   3  Cu   -0.82408530   -0.27672535   -0.42472396     0.000000       0
   4  Cu    1.94664693    2.50906243    1.71968418    62.929599      29
 
 This molecule is an asymmetric top.
 This molecule is planar.
 
 Point group: C1  
 Computational point group: C1  
 
 Cartesian coordinates in standard orientation [bohr]
   1  Cu   -0.21938027   -3.70981456    0.00003668
   2  Cu   -7.33680509    0.82378282    0.00006839
   3  Cu   -3.31487906   -0.47538779   -0.00014177
   4  Cu    1.08710644    0.33614195    0.00000367
 
 Nuclear repulsion energy [au]:          0.000000000000
 
 
 Basis set information:
 
 Maximum angular momentum: k
 Maximum number of contracted Gaussians:   16
 Maximum number of primitive Gaussians:    19
 Spherical harmonic GTOs are used.
 
 
 Conventional basis set:
 
   1  Cu bse_acvqz [ 17s 14p 14d 5f 4g 3h | 9s 9p 8d 5f 4g 3h ]
   2  Cu bse_acvqz [ 17s 14p 14d 5f 4g 3h | 9s 9p 8d 5f 4g 3h ]
   3  Cu bse_acvqz [ 17s 14p 14d 5f 4g 3h | 9s 9p 8d 5f 4g 3h ]
   4  Cu bse_acvqz [ 17s 14p 14d 5f 4g 3h | 9s 9p 8d 5f 4g 3h ]
 
 Basis functions:
            1             2             3             4             5             6             7             8             9            10
    0    1Cu1s         1Cu2s         1Cu3s         1Cu4s         1Cu5s         1Cu6s         1Cu7s         1Cu8s         1Cu9s         1Cu1pz    
    1    1Cu1py        1Cu1px        1Cu2pz        1Cu2py        1Cu2px        1Cu3pz        1Cu3py        1Cu3px        1Cu4pz        1Cu4py    
    2    1Cu4px        1Cu5pz        1Cu5py        1Cu5px        1Cu6pz        1Cu6py        1Cu6px        1Cu7pz        1Cu7py        1Cu7px    
    3    1Cu8pz        1Cu8py        1Cu8px        1Cu9pz        1Cu9py        1Cu9px        1Cu1d-2       1Cu1d-1       1Cu1d0        1Cu1d+1   
    4    1Cu1d+2       1Cu2d-2       1Cu2d-1       1Cu2d0        1Cu2d+1       1Cu2d+2       1Cu3d-2       1Cu3d-1       1Cu3d0        1Cu3d+1   
    5    1Cu3d+2       1Cu4d-2       1Cu4d-1       1Cu4d0        1Cu4d+1       1Cu4d+2       1Cu5d-2       1Cu5d-1       1Cu5d0        1Cu5d+1   
    6    1Cu5d+2       1Cu6d-2       1Cu6d-1       1Cu6d0        1Cu6d+1       1Cu6d+2       1Cu7d-2       1Cu7d-1       1Cu7d0        1Cu7d+1   
    7    1Cu7d+2       1Cu8d-2       1Cu8d-1       1Cu8d0        1Cu8d+1       1Cu8d+2       1Cu1f-3       1Cu1f-2       1Cu1f-1       1Cu1f0    
    8    1Cu1f+1       1Cu1f+2       1Cu1f+3       1Cu2f-3       1Cu2f-2       1Cu2f-1       1Cu2f0        1Cu2f+1       1Cu2f+2       1Cu2f+3   
    9    1Cu3f-3       1Cu3f-2       1Cu3f-1       1Cu3f0        1Cu3f+1       1Cu3f+2       1Cu3f+3       1Cu4f-3       1Cu4f-2       1Cu4f-1   
   10    1Cu4f0        1Cu4f+1       1Cu4f+2       1Cu4f+3       1Cu5f-3       1Cu5f-2       1Cu5f-1       1Cu5f0        1Cu5f+1       1Cu5f+2   
   11    1Cu5f+3       1Cu1g-4       1Cu1g-3       1Cu1g-2       1Cu1g-1       1Cu1g0        1Cu1g+1       1Cu1g+2       1Cu1g+3       1Cu1g+4   
   12    1Cu2g-4       1Cu2g-3       1Cu2g-2       1Cu2g-1       1Cu2g0        1Cu2g+1       1Cu2g+2       1Cu2g+3       1Cu2g+4       1Cu3g-4   
   13    1Cu3g-3       1Cu3g-2       1Cu3g-1       1Cu3g0        1Cu3g+1       1Cu3g+2       1Cu3g+3       1Cu3g+4       1Cu4g-4       1Cu4g-3   
   14    1Cu4g-2       1Cu4g-1       1Cu4g0        1Cu4g+1       1Cu4g+2       1Cu4g+3       1Cu4g+4       1Cu1h-5       1Cu1h-4       1Cu1h-3   
   15    1Cu1h-2       1Cu1h-1       1Cu1h0        1Cu1h+1       1Cu1h+2       1Cu1h+3       1Cu1h+4       1Cu1h+5       1Cu2h-5       1Cu2h-4   
   16    1Cu2h-3       1Cu2h-2       1Cu2h-1       1Cu2h0        1Cu2h+1       1Cu2h+2       1Cu2h+3       1Cu2h+4       1Cu2h+5       1Cu3h-5   
   17    1Cu3h-4       1Cu3h-3       1Cu3h-2       1Cu3h-1       1Cu3h0        1Cu3h+1       1Cu3h+2       1Cu3h+3       1Cu3h+4       1Cu3h+5   
   18    2Cu1s         2Cu2s         2Cu3s         2Cu4s         2Cu5s         2Cu6s         2Cu7s         2Cu8s         2Cu9s         2Cu1pz    
   19    2Cu1py        2Cu1px        2Cu2pz        2Cu2py        2Cu2px        2Cu3pz        2Cu3py        2Cu3px        2Cu4pz        2Cu4py    
   20    2Cu4px        2Cu5pz        2Cu5py        2Cu5px        2Cu6pz        2Cu6py        2Cu6px        2Cu7pz        2Cu7py        2Cu7px    
   21    2Cu8pz        2Cu8py        2Cu8px        2Cu9pz        2Cu9py        2Cu9px        2Cu1d-2       2Cu1d-1       2Cu1d0        2Cu1d+1   
   22    2Cu1d+2       2Cu2d-2       2Cu2d-1       2Cu2d0        2Cu2d+1       2Cu2d+2       2Cu3d-2       2Cu3d-1       2Cu3d0        2Cu3d+1   
   23    2Cu3d+2       2Cu4d-2       2Cu4d-1       2Cu4d0        2Cu4d+1       2Cu4d+2       2Cu5d-2       2Cu5d-1       2Cu5d0        2Cu5d+1   
[...]
  144    4Cu2px        4Cu3pz        4Cu3py        4Cu3px        4Cu4pz        4Cu4py        4Cu4px        4Cu5pz        4Cu5py        4Cu5px    
  145    4Cu6pz        4Cu6py        4Cu6px        4Cu7pz        4Cu7py        4Cu7px        4Cu8pz        4Cu8py        4Cu8px        4Cu9pz    
  146    4Cu9py        4Cu9px        4Cu10pz       4Cu10py       4Cu10px       4Cu11pz       4Cu11py       4Cu11px       4Cu12pz       4Cu12py   
  147    4Cu12px       4Cu13pz       4Cu13py       4Cu13px       4Cu1d-2       4Cu1d-1       4Cu1d0        4Cu1d+1       4Cu1d+2       4Cu2d-2   
  148    4Cu2d-1       4Cu2d0        4Cu2d+1       4Cu2d+2       4Cu3d-2       4Cu3d-1       4Cu3d0        4Cu3d+1       4Cu3d+2       4Cu4d-2   
  149    4Cu4d-1       4Cu4d0        4Cu4d+1       4Cu4d+2       4Cu5d-2       4Cu5d-1       4Cu5d0        4Cu5d+1       4Cu5d+2       4Cu6d-2   
  150    4Cu6d-1       4Cu6d0        4Cu6d+1       4Cu6d+2       4Cu7d-2       4Cu7d-1       4Cu7d0        4Cu7d+1       4Cu7d+2       4Cu8d-2   
  151    4Cu8d-1       4Cu8d0        4Cu8d+1       4Cu8d+2       4Cu9d-2       4Cu9d-1       4Cu9d0        4Cu9d+1       4Cu9d+2       4Cu10d-2  
  152    4Cu10d-1      4Cu10d0       4Cu10d+1      4Cu10d+2      4Cu11d-2      4Cu11d-1      4Cu11d0       4Cu11d+1      4Cu11d+2      4Cu12d-2  
  153    4Cu12d-1      4Cu12d0       4Cu12d+1      4Cu12d+2      4Cu1f-3       4Cu1f-2       4Cu1f-1       4Cu1f0        4Cu1f+1       4Cu1f+2   
  154    4Cu1f+3       4Cu2f-3       4Cu2f-2       4Cu2f-1       4Cu2f0        4Cu2f+1       4Cu2f+2       4Cu2f+3       4Cu3f-3       4Cu3f-2   
  155    4Cu3f-1       4Cu3f0        4Cu3f+1       4Cu3f+2       4Cu3f+3       4Cu4f-3       4Cu4f-2       4Cu4f-1       4Cu4f0        4Cu4f+1   
  156    4Cu4f+2       4Cu4f+3       4Cu5f-3       4Cu5f-2       4Cu5f-1       4Cu5f0        4Cu5f+1       4Cu5f+2       4Cu5f+3       4Cu6f-3   
  157    4Cu6f-2       4Cu6f-1       4Cu6f0        4Cu6f+1       4Cu6f+2       4Cu6f+3       4Cu7f-3       4Cu7f-2       4Cu7f-1       4Cu7f0    
  158    4Cu7f+1       4Cu7f+2       4Cu7f+3       4Cu8f-3       4Cu8f-2       4Cu8f-1       4Cu8f0        4Cu8f+1       4Cu8f+2       4Cu8f+3   
  159    4Cu9f-3       4Cu9f-2       4Cu9f-1       4Cu9f0        4Cu9f+1       4Cu9f+2       4Cu9f+3       4Cu10f-3      4Cu10f-2      4Cu10f-1  
  160    4Cu10f0       4Cu10f+1      4Cu10f+2      4Cu10f+3      4Cu1g-4       4Cu1g-3       4Cu1g-2       4Cu1g-1       4Cu1g0        4Cu1g+1   
  161    4Cu1g+2       4Cu1g+3       4Cu1g+4       4Cu2g-4       4Cu2g-3       4Cu2g-2       4Cu2g-1       4Cu2g0        4Cu2g+1       4Cu2g+2   
  162    4Cu2g+3       4Cu2g+4       4Cu3g-4       4Cu3g-3       4Cu3g-2       4Cu3g-1       4Cu3g0        4Cu3g+1       4Cu3g+2       4Cu3g+3   
  163    4Cu3g+4       4Cu4g-4       4Cu4g-3       4Cu4g-2       4Cu4g-1       4Cu4g0        4Cu4g+1       4Cu4g+2       4Cu4g+3       4Cu4g+4   
  164    4Cu5g-4       4Cu5g-3       4Cu5g-2       4Cu5g-1       4Cu5g0        4Cu5g+1       4Cu5g+2       4Cu5g+3       4Cu5g+4       4Cu6g-4   
  165    4Cu6g-3       4Cu6g-2       4Cu6g-1       4Cu6g0        4Cu6g+1       4Cu6g+2       4Cu6g+3       4Cu6g+4       4Cu7g-4       4Cu7g-3   
  166    4Cu7g-2       4Cu7g-1       4Cu7g0        4Cu7g+1       4Cu7g+2       4Cu7g+3       4Cu7g+4       4Cu8g-4       4Cu8g-3       4Cu8g-2   
  167    4Cu8g-1       4Cu8g0        4Cu8g+1       4Cu8g+2       4Cu8g+3       4Cu8g+4       4Cu9g-4       4Cu9g-3       4Cu9g-2       4Cu9g-1   
  168    4Cu9g0        4Cu9g+1       4Cu9g+2       4Cu9g+3       4Cu9g+4       4Cu10g-4      4Cu10g-3      4Cu10g-2      4Cu10g-1      4Cu10g0   
  169    4Cu10g+1      4Cu10g+2      4Cu10g+3      4Cu10g+4      4Cu1h-5       4Cu1h-4       4Cu1h-3       4Cu1h-2       4Cu1h-1       4Cu1h0    
  170    4Cu1h+1       4Cu1h+2       4Cu1h+3       4Cu1h+4       4Cu1h+5       4Cu2h-5       4Cu2h-4       4Cu2h-3       4Cu2h-2       4Cu2h-1   
  171    4Cu2h0        4Cu2h+1       4Cu2h+2       4Cu2h+3       4Cu2h+4       4Cu2h+5       4Cu3h-5       4Cu3h-4       4Cu3h-3       4Cu3h-2   
  172    4Cu3h-1       4Cu3h0        4Cu3h+1       4Cu3h+2       4Cu3h+3       4Cu3h+4       4Cu3h+5       4Cu4h-5       4Cu4h-4       4Cu4h-3   
  173    4Cu4h-2       4Cu4h-1       4Cu4h0        4Cu4h+1       4Cu4h+2       4Cu4h+3       4Cu4h+4       4Cu4h+5       4Cu5h-5       4Cu5h-4   
  174    4Cu5h-3       4Cu5h-2       4Cu5h-1       4Cu5h0        4Cu5h+1       4Cu5h+2       4Cu5h+3       4Cu5h+4       4Cu5h+5       4Cu6h-5   
  175    4Cu6h-4       4Cu6h-3       4Cu6h-2       4Cu6h-1       4Cu6h0        4Cu6h+1       4Cu6h+2       4Cu6h+3       4Cu6h+4       4Cu6h+5   
  176    4Cu7h-5       4Cu7h-4       4Cu7h-3       4Cu7h-2       4Cu7h-1       4Cu7h0        4Cu7h+1       4Cu7h+2       4Cu7h+3       4Cu7h+4   
  177    4Cu7h+5       4Cu1i-6       4Cu1i-5       4Cu1i-4       4Cu1i-3       4Cu1i-2       4Cu1i-1       4Cu1i0        4Cu1i+1       4Cu1i+2   
  178    4Cu1i+3       4Cu1i+4       4Cu1i+5       4Cu1i+6       4Cu2i-6       4Cu2i-5       4Cu2i-4       4Cu2i-3       4Cu2i-2       4Cu2i-1   
  179    4Cu2i0        4Cu2i+1       4Cu2i+2       4Cu2i+3       4Cu2i+4       4Cu2i+5       4Cu2i+6       4Cu3i-6       4Cu3i-5       4Cu3i-4   
  180    4Cu3i-3       4Cu3i-2       4Cu3i-1       4Cu3i0        4Cu3i+1       4Cu3i+2       4Cu3i+3       4Cu3i+4       4Cu3i+5       4Cu3i+6   
  181    4Cu4i-6       4Cu4i-5       4Cu4i-4       4Cu4i-3       4Cu4i-2       4Cu4i-1       4Cu4i0        4Cu4i+1       4Cu4i+2       4Cu4i+3   
  182    4Cu4i+4       4Cu4i+5       4Cu4i+6       4Cu5i-6       4Cu5i-5       4Cu5i-4       4Cu5i-3       4Cu5i-2       4Cu5i-1       4Cu5i0    
  183    4Cu5i+1       4Cu5i+2       4Cu5i+3       4Cu5i+4       4Cu5i+5       4Cu5i+6       4Cu1k-7       4Cu1k-6       4Cu1k-5       4Cu1k-4   
  184    4Cu1k-3       4Cu1k-2       4Cu1k-1       4Cu1k0        4Cu1k+1       4Cu1k+2       4Cu1k+3       4Cu1k+4       4Cu1k+5       4Cu1k+6   
  185    4Cu1k+7       4Cu2k-7       4Cu2k-6       4Cu2k-5       4Cu2k-4       4Cu2k-3       4Cu2k-2       4Cu2k-1       4Cu2k0        4Cu2k+1   
  186    4Cu2k+2       4Cu2k+3       4Cu2k+4       4Cu2k+5       4Cu2k+6       4Cu2k+7       4Cu3k-7       4Cu3k-6       4Cu3k-5       4Cu3k-4   
  187    4Cu3k-3       4Cu3k-2       4Cu3k-1       4Cu3k0        4Cu3k+1       4Cu3k+2       4Cu3k+3       4Cu3k+4       4Cu3k+5       4Cu3k+6   
  188    4Cu3k+7       4Cu4k-7       4Cu4k-6       4Cu4k-5       4Cu4k-4       4Cu4k-3       4Cu4k-2       4Cu4k-1       4Cu4k0        4Cu4k+1   
  189    4Cu4k+2       4Cu4k+3       4Cu4k+4       4Cu4k+5       4Cu4k+6       4Cu4k+7   
 
 Maximum number of basis functions per shell:   90
 Total number of basis functions:   1896
 
 
 Old basis set for SCF restart
 
   1  Cu def2-svp [ 14s 9p 5d 1f | 5s 3p 2d 1f ]
   2  Cu def2-svp [ 14s 9p 5d 1f | 5s 3p 2d 1f ]
   3  Cu def2-svp [ 14s 9p 5d 1f | 5s 3p 2d 1f ]
   4  Cu def2-svp [ 14s 9p 5d 1f | 5s 3p 2d 1f ]
 
 Basis functions:
            1             2             3             4             5             6             7             8             9            10
    0    1Cu1s         1Cu2s         1Cu3s         1Cu4s         1Cu5s         1Cu1pz        1Cu1py        1Cu1px        1Cu2pz        1Cu2py    
    1    1Cu2px        1Cu3pz        1Cu3py        1Cu3px        1Cu1d-2       1Cu1d-1       1Cu1d0        1Cu1d+1       1Cu1d+2       1Cu2d-2   
    2    1Cu2d-1       1Cu2d0        1Cu2d+1       1Cu2d+2       1Cu1f-3       1Cu1f-2       1Cu1f-1       1Cu1f0        1Cu1f+1       1Cu1f+2   
    3    1Cu1f+3       2Cu1s         2Cu2s         2Cu3s         2Cu4s         2Cu5s         2Cu1pz        2Cu1py        2Cu1px        2Cu2pz    
    4    2Cu2py        2Cu2px        2Cu3pz        2Cu3py        2Cu3px        2Cu1d-2       2Cu1d-1       2Cu1d0        2Cu1d+1       2Cu1d+2   
    5    2Cu2d-2       2Cu2d-1       2Cu2d0        2Cu2d+1       2Cu2d+2       2Cu1f-3       2Cu1f-2       2Cu1f-1       2Cu1f0        2Cu1f+1   
    6    2Cu1f+2       2Cu1f+3       3Cu1s         3Cu2s         3Cu3s         3Cu4s         3Cu5s         3Cu1pz        3Cu1py        3Cu1px    
    7    3Cu2pz        3Cu2py        3Cu2px        3Cu3pz        3Cu3py        3Cu3px        3Cu1d-2       3Cu1d-1       3Cu1d0        3Cu1d+1   
    8    3Cu1d+2       3Cu2d-2       3Cu2d-1       3Cu2d0        3Cu2d+1       3Cu2d+2       3Cu1f-3       3Cu1f-2       3Cu1f-1       3Cu1f0    
    9    3Cu1f+1       3Cu1f+2       3Cu1f+3       4Cu1s         4Cu2s         4Cu3s         4Cu4s         4Cu5s         4Cu1pz        4Cu1py    
   10    4Cu1px        4Cu2pz        4Cu2py        4Cu2px        4Cu3pz        4Cu3py        4Cu3px        4Cu1d-2       4Cu1d-1       4Cu1d0    
   11    4Cu1d+1       4Cu1d+2       4Cu2d-2       4Cu2d-1       4Cu2d0        4Cu2d+1       4Cu2d+2       4Cu1f-3       4Cu1f-2       4Cu1f-1   
   12    4Cu1f0        4Cu1f+1       4Cu1f+2       4Cu1f+3   
 
 Maximum number of basis functions per shell:   90
 Total number of basis functions:    124
 
 
 Effective core potentials:
 
   4  Cu mcdhf-ecp-10        
 
 Calculation of prescreening integrals...
 CPU time [min]:    15.512                   Wall time [min]:     1.048
 
 Calculation of two-center Coulomb integrals...
   1% done.
  12% done.
  25% done.
  36% done.
  47% done.
  60% done.
  72% done.
  87% done.
 100% done.
 CPU time [min]:    15.549                   Wall time [min]:     1.049
 
 Cholesky decomposition of the inverse of the two-center matrix...
 CPU time [min]:    15.633                   Wall time [min]:     1.062
 
 Calculation of three-center Coulomb integrals...
   1% done.
  13% done.
  25% done.
  37% done.
  50% done.
  64% done.
  82% done.
 100% done.
 CPU time [min]:    20.754                   Wall time [min]:     1.596

 ************************ 2022-11-12 13:31:42 *************************
 Executing drpa...

 Three-index integral transformation
 
 Allocation of 150.0 Gbytes of memory...

 Alpha-alpha contribution
 Minimal memory requirement for (ai|P) and (ij|P) integrals:      115.5 MB

 Calculating (ai|P) and (ij|P) integrals...
 Number of integral batches:    1
 Occupied indices per batch:   10
 
 Transforming integrals of batch 1...
 CPU time [min]:     4.336                   Wall time [min]:     0.341


 Beta-beta and alpha-beta contribution
 Minimal memory requirement for (ai|P) and (ij|P) integrals:      284.6 MB

 Calculating (ai|P) and (ij|P) integrals...
 Number of integral batches:    1
 Occupied indices per batch:    9
 
 Transforming integrals of batch 1...
 CPU time [min]:    16.030                   Wall time [min]:     1.423



 Alpha-alpha contribution

 Constructing MP2 natural orbitals...

 Threshold for individual occupations:     5.0000E-06
 Corresponding cummulative occupation threshold:  0.99917154  0.99912482
 Total number of virtual orbitals:     710
 Number of virtual natural orbitals:   128  (18.03%)
 
 Transforming (ai|P) integrals to the NO basis...
 Number of integral batches:    1
 Occupied indices per batch:   10
 
 Transforming integrals of batch 1 to the NO basis...
 CPU time [min]:    16.241                   Wall time [min]:     1.457

 Calculating (ab|P) integrals...
 Minimal memory requirement for (ab|P) integrals:       69.2 MB
 Number of integral batches:    1
 Virtual indices per batch:   128

 Transforming integrals of batch 1...
 CPU time [min]:    18.325                   Wall time [min]:     1.947


 Beta-beta and alpha-beta contribution

 Constructing MP2 natural orbitals...

 Threshold for individual occupations:     5.0000E-06
 Corresponding cummulative occupation threshold:  0.99900977  0.99896871
 Total number of virtual orbitals:     711
 Number of virtual natural orbitals:   126  (17.72%)
 
 Transforming (ai|P) integrals to the NO basis...
 Number of integral batches:    1
 Occupied indices per batch:    9
 
 Transforming integrals of batch 1 to the NO basis...
 CPU time [min]:    18.617                   Wall time [min]:     1.961

 Calculating (ab|P) integrals...
 Minimal memory requirement for (ab|P) integrals:       69.2 MB
 Number of integral batches:    1
 Virtual indices per batch:   126

 Transforming integrals of batch 1...
 CPU time [min]:    20.209                   Wall time [min]:     3.378



 Alpha-alpha contribution

 Constructing natural auxiliary functions...

 Threshold for eigenvalues:     2.0000E-02
 Total number of auxiliary functions:    1896
 Number of natural auxiliary functions:   441  (23.26%)

 Transforming (ai|P) and (ij|P) integrals to the NAF basis...
 Number of integral batches:    1
 Occupied indices per batch:   10
 
 Transforming integrals of batch 1 to the NAF basis...
 CPU time [min]:    20.468                   Wall time [min]:     3.391

 Transforming (ab|P) integrals to the NAF basis...
 Number of integral batches:    1
 Virtual indices per batch:   128

 Transforming integrals of batch 1 to the NAF basis...
 CPU time [min]:    20.573                   Wall time [min]:     3.399


 Beta-beta and alpha-beta contribution

 Transforming (ai|P) and (ij|P) integrals to the NAF basis...
 Number of integral batches:    1
 Occupied indices per batch:    9
 
 Transforming integrals of batch 1 to the NAF basis...
 CPU time [min]:    20.768                   Wall time [min]:     3.409

 Transforming (ab|P) integrals to the NAF basis...
 Number of integral batches:    1
 Virtual indices per batch:   126

 Transforming integrals of batch 1 to the NAF basis...
 CPU time [min]:    20.869                   Wall time [min]:     3.414
 

 Results in full basis:
 
 
 Reference energy [au]:                      -196.176954623185
 DF-MP2 singlet pair energy [au]:              -0.746743562013
 DF-MP2 triplet pair energy [au]:              -0.338115841698
 DF-SCS-MP2 correlation energy [au]:           -1.008797554981
 DF-SCS-MP2 energy [au]:                     -197.185752178166
 DF-SOS-MP2 correlation energy [au]:           -0.970766630617
 DF-SOS-MP2 energy [au]:                     -197.147721253802
 DF-MP2 correlation energy [au]:               -1.084859403711
 DF-MP2 energy [au]:                         -197.261814026896

 Results in FNO basis:
 
 
 Reference energy [au]:                      -196.176954623185
 DF-MP2 singlet pair energy [au]:              -0.738858332597
 DF-MP2 triplet pair energy [au]:              -0.337088229655
 DF-SCS-MP2 correlation energy [au]:           -0.998992742335
 DF-SCS-MP2 energy [au]:                     -197.175947365521
 DF-SOS-MP2 correlation energy [au]:           -0.960515832377
 DF-SOS-MP2 energy [au]:                     -197.137470455562
 DF-MP2 correlation energy [au]:               -1.075946562253
 DF-MP2 energy [au]:                         -197.252901185438

 Results in NAF basis:
 
 
 Reference energy [au]:                      -196.176954623185
 DF-MP2 singlet pair energy [au]:              -0.738841845873
 DF-MP2 triplet pair energy [au]:              -0.337082964872
 DF-SCS-MP2 correlation energy [au]:           -0.998971203338
 DF-SCS-MP2 energy [au]:                     -197.175925826524
 DF-SOS-MP2 correlation energy [au]:           -0.960494399635
 DF-SOS-MP2 energy [au]:                     -197.137449022820
 DF-MP2 correlation energy [au]:               -1.075924810745
 DF-MP2 energy [au]:                         -197.252879433930

 ************************ 2022-11-12 13:35:13 *************************
 Executing uccsd...

 Allocation of 150.0 Gbytes of memory...
 
 UHF reference wavefunction.
 Canonical DF-CCSD(T) calculation.
 Number of correlated alpha electrons:       10
 Number of correlated beta electrons:         9
 Number of virtual alpha orbitals:          128
 Number of virtual beta orbitals:           126
 Number of auxiliary basis functions:       441
 Minimal memory requirement for CCSD: 130.12 MB
 Disk space requirement for CCSD:       0.56 GB
 Minimal memory requirement for (T):  149.20 MB
 Disk space requirement for (T):        0.74 GB
 
 Assembling four center integrals... Done!
 CPU time [min]:     1.021                   Wall time [min]:     0.364
 
 Reference energy [au]:                     -196.176954623185
 T1 contributions [au]:                       -0.000000000000
 Same spin MP2 energy [au]:                   -0.337085596537
 Opposite spin MP2 energy [au]:               -0.738850088421
 MP2 correlation energy [au]:                 -1.075935684959
 Total MP2 energy [au]:                     -197.252890308144
 MP2 correction [au]:                         -0.008923718752
 
 Projected  S^2 /   T1,    T2, total/   -0.000000  -0.000000   0.752153
 
 Starting CCSD iterations...
 
                     Residual norm     Correlation energy [au]
 -------------------------------------------------------------
 Iteration  1       0.193177556630        -0.897675886805
 Iteration  2       0.139495133267        -0.952389172978
 Iteration  3       0.023372761477        -0.963049600283
 Iteration  4       0.008936798768        -0.960855374983
 Iteration  5       0.001421018738        -0.960852999618
 Iteration  6       0.000297306436        -0.960865645012
 Iteration  7       0.000114620887        -0.960844731670
 Iteration  8       0.000055739966        -0.960839697074
 Iteration  9       0.000021936877        -0.960843484105
 Iteration 10       0.000008780565        -0.960845341754
 Iteration 11       0.000004177082        -0.960845032722
 
 CCSD iteration has converged in 11 steps.
 
 T1 contribution [au]:                                 -0.000000000000
 PPL energy contribution [au]:                          0.126739402019
 Scaled PPL energy contribution [au]:                   0.127763001798
 
 OS-PPL energy contribution [au]:                       0.096165712946
 Scaled OS-PPL energy contribution [au]:                0.097167782840
 SS-PPL energy contribution [au]:                       0.030573689073
 Scaled SS-PPL energy contribution [au]:                0.030665683260
 
 Opposite spin CCSD energy [au]:                       -0.688673081178
 Same spin CCSD energy [au]:                           -0.272180939514
 CCSD correlation energy [au]:                         -0.960854020692
 CCSD correlation energy + MP2 correction [au]:        -0.969777739444
 CCSD correlation energy + MP2 + PPL corr. [au]:       -0.968754139665
 Total CCSD energy [au]:                             -197.137808643877
 Total CCSD energy + MP2 correction [au]:            -197.146732362629
 Total CCSD energy + MP2 + PPL corr. [au]:           -197.145708762850
 
 Projected  S^2 /   T1,    T2, total/    0.000031  -0.000000   0.752184
 
 Alpha T1 diagnostic:      2.895E-02      D1 diagnostic:      6.868E-02
 Beta  T1 diagnostic:      2.437E-02      D1 diagnostic:      3.263E-02
 CPU time [min]:    26.436                   Wall time [min]:     2.334
 
 Calculation of (T) correction...
   1% done.
  12% done.
  24% done.
  35% done.
  47% done.
  58% done.
  72% done.
  86% done.
 100% done.
 
 (T) correction [au]:                                 -0.034460967035
 (T*) correction [au]:                                -0.034746783355
 (T+) correction [au]:                                -0.034726783857
 CCSD(T) correlation energy [au]:                     -0.995314987727
 CCSD(T) correlation energy + MP2 correction [au]:    -1.004238706479
 CCSD(T+) correlation en. + MP2 + PPL corr. [au]:     -1.003480923522
 Total CCSD(T) energy [au]:                         -197.172269610912
 Total CCSD(T) energy + MP2 correction [au]:        -197.181193329664
 Total CCSD(T+) energy + MP2 + PPL corr. [au]:      -197.180435546707
 
 CPU time [min]:    32.654                   Wall time [min]:     2.861
 
 ************************ 2022-11-12 13:38:05 *************************
                      Normal termination of mrcc.
 **********************************************************************
