 vasp.6.4.0 14Feb23 (build Dec 05 2023 14:15:48) complex                        
  
 executed on             LinuxIFC date 2023.12.09  19:42:20
 running  256 mpi-ranks, with    1 threads/rank, on   32 nodes
 distrk:  each k-point on  256 cores,    1 groups
 distr:  one band on NCORE=  16 cores,   16 groups


--------------------------------------------------------------------------------------------------------


 INCAR:
   SYSTEM = MgO-rocksalt
   ISMEAR = 0
   SIGMA = 0.05
   EDIFF = 1E-6
   ALGO = ALL
   ISTART = 0
   IBRION = -1
   NSW = 0
   ISYM = 3
   LHFCALC = .TRUE.
   GGA = B5
   AEXX = 0.2
   AGGAX = 0.72
   AGGAC = 0.81
   ALDAC = 0.19
   IVDW = 13
   VDW_S8 = 2.0293
   VDW_A1 = 0.4087
   VDW_A2 = 4.5381
   ENCUT = 520
   PREC = Normal
   LASPH = .TRUE.
   LREAL = Auto
   ISPIN = 1
   NELM = 2000
   NELMIN = 8
   NCORE = 16
   LWAVE = .FALSE.
   LCHARG = .FALSE.

 POTCAR:    PAW_PBE Ag 02Apr2005                  
 POTCAR:    PAW_PBE Ag 02Apr2005                  
   SHA256 =  6550cfa3543261e132c169e1b98a529204624d72be14e2da2e0242bcb74a174d Ag/POTCAR             
   COPYR  = (c) Copyright 02Apr2005 Georg Kresse                                                    
   COPYR  = This file is part of the software VASP. Any use, copying, and all other rights are regul
   COPYR  = If you do not have a valid VASP license, you may not use, copy or distribute this file. 
   VRHFIN =Ag : s1 d10                                                                              
   LEXCH  = PE                                                                                      
   EATOM  =  1037.2675 eV,   76.2370 Ry                                                             
                                                                                                    
   TITEL  = PAW_PBE Ag 02Apr2005                                                                    
   LULTRA =        F    use ultrasoft PP ?                                                          
   IUNSCR =        1    unscreen: 0-lin 1-nonlin 2-no                                               
   RPACOR =    2.000    partial core radius                                                         
   POMASS =  107.868; ZVAL   =   11.000    mass and valenz                                          
   RCORE  =    2.500    outmost cutoff radius                                                       
   RWIGS  =    2.840; RWIGS  =    1.503    wigner-seitz radius (au A)                               
   ENMAX  =  249.844; ENMIN  =  187.383 eV                                                          
   ICORE  =        3    local potential                                                             
   LCOR   =        T    correct aug charges                                                         
   LPAW   =        T    paw PP                                                                      
   EAUG   =  412.496                                                                                
   DEXC   =    0.000                                                                                
   RMAX   =    2.560    core radius for proj-oper                                                   
   RAUG   =    1.300    factor for augmentation sphere                                              
   RDEP   =    2.576    radius for radial grids                                                     
   RDEPT  =    2.072    core radius for aug-charge                                                  
                                                                                                    
   Atomic configuration                                                                             
   12 entries                                                                                       
     n  l   j            E        occ.                                                              
     1  0  0.50    -25324.9161   2.0000                                                             
     2  0  0.50     -3728.5341   2.0000                                                             
     2  1  1.50     -3344.0404   6.0000                                                             
     3  0  0.50      -683.5581   2.0000                                                             
     3  1  1.50      -557.3225   6.0000                                                             
     3  2  2.50      -358.3853  10.0000                                                             
     4  0  0.50       -95.0341   2.0000                                                             
     4  1  1.50       -58.5511   6.0000                                                             
     4  2  2.50        -7.4440  10.0000                                                             
     5  0  0.50        -4.4045   1.0000                                                             
     5  1  0.50        -1.3606   0.0000                                                             
     4  3  2.50        -1.3606   0.0000                                                             
   Description                                                                                      
     l       E           TYP  RCUT    TYP  RCUT                                                     
     2     -7.4439781     23  2.400                                                                 
     2     -8.8045607     23  2.400                                                                 
     0     -4.4044681     23  2.400                                                                 
     0      1.9520038     23  2.400                                                                 
     1     -1.3605826     23  2.500                                                                 
     1     27.2116520     23  2.500                                                                 
     3     -4.0817478     23  2.400                                                                 
  local pseudopotential read in
  partial core-charges read in
  partial kinetic energy density read in
  atomic valenz-charges read in
  non local Contribution for L=           2  read in
    real space projection operators read in
  non local Contribution for L=           2  read in
    real space projection operators read in
  non local Contribution for L=           0  read in
    real space projection operators read in
  non local Contribution for L=           0  read in
    real space projection operators read in
  non local Contribution for L=           1  read in
    real space projection operators read in
  non local Contribution for L=           1  read in
    real space projection operators read in
    PAW grid and wavefunctions read in
 
   number of l-projection  operators is LMAX  =           6
   number of lm-projection operators is LMMAX =          18
 
 -----------------------------------------------------------------------------
|                                                                             |
|               ----> ADVICE to this user running VASP <----                  |
|                                                                             |
|     You have a (more or less) 'small supercell' and for smaller cells       |
|     it is recommended to use the reciprocal-space projection scheme!        |
|     The real-space optimization is not efficient for small cells and it     |
|     is also less accurate ...                                               |
|     Therefore, set LREAL=.FALSE. in the INCAR file.                         |
|                                                                             |
 -----------------------------------------------------------------------------

 Optimization of the real space projectors (new method)

 maximal supplied QI-value         = 15.12
 optimisation between [QCUT,QGAM] = [ 11.64, 23.28] = [ 37.95,151.78] Ry 
 Optimized for a Real-space Cutoff    1.40 Angstroem

   l    n(q)    QCUT    max X(q) W(low)/X(q) W(high)/X(q)  e(spline) 
   2      9    11.641    53.897    0.27E-03    0.11E-03    0.28E-06
   2      9    11.641    52.416    0.27E-03    0.11E-03    0.29E-06
   0     10    11.641   122.045    0.70E-04    0.59E-04    0.17E-06
   0     10    11.641    73.629    0.67E-04    0.56E-04    0.16E-06
   1      9    11.641    15.255    0.49E-03    0.24E-03    0.17E-06
   1      9    11.641     9.562    0.40E-03    0.20E-03    0.14E-06
 -----------------------------------------------------------------------------
|                                                                             |
|               ----> ADVICE to this user running VASP <----                  |
|                                                                             |
|     You enforced a specific xc type in the INCAR file but a different       |
|     type was found in the POTCAR file.                                      |
|     I HOPE YOU KNOW WHAT YOU ARE DOING!                                     |
|                                                                             |
 -----------------------------------------------------------------------------

  PAW_PBE Ag 02Apr2005                  :
 energy of atom  1       EATOM=-1037.2675
 kinetic energy error for atom=    0.0047 (will be added to EATOM!!)
 
 
 POSCAR: Ag
  positions in direct lattice
  velocities in cartesian coordinates
 WARNING: Using user supplied parameters
     VDW_S8 = 2.029
     VDW_A1 = 0.409
     VDW_A2 = 4.538
     because the xc functional is not supported. Required parameters not
     defined in the INCAR file will be replaced with PBE defaults ones.

 exchange correlation table for  LEXCH =       12
   RHO(1)=    0.500       N(1)  =     2000
   RHO(2)=  100.500       N(2)  =     4000
 


--------------------------------------------------------------------------------------------------------


 ion  position               nearest neighbor table
   1  0.653  0.423  0.456-   7 2.66   6 2.73   5 2.80
   2  0.432  0.574  0.519-   3 2.69   4 2.70   8 2.72   6 2.78
   3  0.344  0.533  0.612-   4 2.69   2 2.69
   4  0.454  0.460  0.586-   3 2.69   2 2.70   5 2.72   6 2.78
   5  0.564  0.386  0.557-   6 2.67   4 2.72   1 2.80
   6  0.544  0.499  0.488-   5 2.67   8 2.67   1 2.73   7 2.73   4 2.78   2 2.78
   7  0.632  0.536  0.390-   1 2.66   6 2.73   8 2.80
   8  0.521  0.614  0.424-   6 2.67   2 2.72   7 2.80
 
  LATTYP: Found a simple cubic cell.
 ALAT       =    20.0000000000
  
  Lattice vectors:
  
 A1 = (  20.0000000000,   0.0000000000,   0.0000000000)
 A2 = (   0.0000000000,  20.0000000000,   0.0000000000)
 A3 = (   0.0000000000,   0.0000000000,  20.0000000000)


Analysis of symmetry for initial positions (statically):
=====================================================================
 Subroutine PRICEL returns:
 Original cell was already a primitive cell.
 

 Routine SETGRP: Setting up the symmetry group for a 
 simple cubic supercell.


 Subroutine GETGRP returns: Found  1 space group operations
 (whereof  1 operations were pure point group operations)
 out of a pool of 48 trial point group operations.


The static configuration has the point symmetry C_1 .


Analysis of symmetry for dynamics (positions and initial velocities):
=====================================================================
 Subroutine PRICEL returns:
 Original cell was already a primitive cell.
 

 Routine SETGRP: Setting up the symmetry group for a 
 simple cubic supercell.


 Subroutine GETGRP returns: Found  1 space group operations
 (whereof  1 operations were pure point group operations)
 out of a pool of 48 trial point group operations.


The dynamic configuration has the point symmetry C_1 .


 Subroutine INISYM returns: Found  1 space group operations
 (whereof  1 operations are pure point group operations),
 and found     1 'primitive' translations


----------------------------------------------------------------------------------------

                                     Primitive cell                                     

  volume of cell :    8000.0000

  direct lattice vectors                    reciprocal lattice vectors
    20.000000000  0.000000000  0.000000000     0.050000000  0.000000000  0.000000000
     0.000000000 20.000000000  0.000000000     0.000000000  0.050000000  0.000000000
     0.000000000  0.000000000 20.000000000     0.000000000  0.000000000  0.050000000

  length of vectors
    20.000000000 20.000000000 20.000000000     0.050000000  0.050000000  0.050000000

  position of ions in fractional coordinates (direct lattice)
     0.653291393  0.422751516  0.455986449
     0.431676485  0.574439612  0.518785525
     0.344069007  0.533366876  0.612338170
     0.453528739  0.459663708  0.585969168
     0.563675321  0.385796973  0.556924968
     0.544417773  0.498859129  0.488206786
     0.631722990  0.535980011  0.389779596
     0.520516735  0.613638741  0.423922982

  ion indices of the primitive-cell ions
   primitive index   ion index
                 1           1
                 2           2
                 3           3
                 4           4
                 5           5
                 6           6
                 7           7
                 8           8

----------------------------------------------------------------------------------------

 
 
 KPOINTS: KPOINTS created by Atomic Simulation Env

Automatic generation of k-mesh.
 Grid dimensions read from file:
 generate k-points for:    1    1    1

 Generating k-lattice:

  Cartesian coordinates                     Fractional coordinates (reciprocal lattice)
     0.050000000  0.000000000  0.000000000     1.000000000  0.000000000  0.000000000
     0.000000000  0.050000000  0.000000000     0.000000000  1.000000000  0.000000000
     0.000000000  0.000000000  0.050000000     0.000000000  0.000000000  1.000000000

  Length of vectors
     0.050000000  0.050000000  0.050000000

  Shift w.r.t. Gamma in fractional coordinates (k-lattice)
     0.000000000  0.000000000  0.000000000

 
 Subroutine IBZKPT returns following result:
 ===========================================
 
 Found      1 irreducible k-points:
 
 Following reciprocal coordinates:
            Coordinates               Weight
  0.000000  0.000000  0.000000      1.000000
 
 Following cartesian coordinates:
            Coordinates               Weight
  0.000000  0.000000  0.000000      1.000000
 
 
 Subroutine IBZKPT_HF returns following result:
 ==============================================
 
 Found      1 k-points in 1st BZ
 the following      1 k-points will be used (e.g. in the exchange kernel)
 Following reciprocal coordinates:   # in IRBZ
  0.000000  0.000000  0.000000    1.00000000   1 t-inv F


--------------------------------------------------------------------------------------------------------




 Dimension of arrays:
   k-points           NKPTS =      1   k-points in BZ     NKDIM =      1   number of bands    NBANDS=     64
   number of dos      NEDOS =    301   number of ions     NIONS =      8
   non local maximal  LDIM  =      6   non local SUM 2l+1 LMDIM =     18
   total plane-waves  NPLWV = ******
   max r-space proj   IRMAX =   2084   max aug-charges    IRDMAX=   8833
   dimension x,y,z NGX =   112 NGY =  112 NGZ =  112
   dimension x,y,z NGXF=   224 NGYF=  224 NGZF=  224
   support grid    NGXF=   224 NGYF=  224 NGZF=  224
   ions per type =               8
   NGX,Y,Z   is equivalent  to a cutoff of   9.31,  9.31,  9.31 a.u.
   NGXF,Y,Z  is equivalent  to a cutoff of  18.62, 18.62, 18.62 a.u.

 SYSTEM =  MgO-rocksalt                            
 POSCAR =  Ag                                      

 Startparameter for this run:
   NWRITE =      2    write-flag & timer
   PREC   = normal    normal or accurate (medium, high low for compatibility)
   ISTART =      0    job   : 0-new  1-cont  2-samecut
   ICHARG =      2    charge: 1-file 2-atom 10-const
   ISPIN  =      1    spin polarized calculation?
   LNONCOLLINEAR =      F non collinear calculations
   LSORBIT =      F    spin-orbit coupling
   INIWAV =      1    electr: 0-lowe 1-rand  2-diag
   LASPH  =      T    aspherical Exc in radial PAW
 Electronic Relaxation 1
   ENCUT  =  520.0 eV  38.22 Ry    6.18 a.u.  37.19 37.19 37.19*2*pi/ulx,y,z
   ENINI  =  520.0     initial cutoff
   ENAUG  =  412.5 eV  augmentation charge cutoff
   NELM   =   2000;   NELMIN=  8; NELMDL= -5     # of ELM steps 
   EDIFF  = 0.1E-05   stopping-criterion for ELM
   LREAL  =      T    real-space projection
   NLSPLINE    = F    spline interpolate recip. space projectors
   LCOMPAT=      F    compatible to vasp.4.4
   GGA_COMPAT  = T    GGA compatible to vasp.4.4-vasp.4.6
   LMAXPAW     = -100 max onsite density
   LMAXMIX     =    2 max onsite mixed and CHGCAR
   VOSKOWN=      0    Vosko Wilk Nusair interpolation
   ROPT   =   -0.00050
 Ionic relaxation
   EDIFFG = 0.1E-04   stopping-criterion for IOM
   NSW    =      0    number of steps for IOM
   NBLOCK =      1;   KBLOCK =      1    inner block; outer block 
   IBRION =     -1    ionic relax: 0-MD 1-quasi-New 2-CG
   NFREE  =      0    steps in history (QN), initial steepest desc. (CG)
   ISIF   =      0    stress and relaxation
   IWAVPR =     10    prediction:  0-non 1-charg 2-wave 3-comb
   ISYM   =      3    0-nonsym 1-usesym 2-fastsym
   LCORR  =      T    Harris-Foulkes like correction to forces

   POTIM  = 0.5000    time-step for ionic-motion
   TEIN   =    0.0    initial temperature
   TEBEG  =    0.0;   TEEND  =   0.0 temperature during run
   SMASS  =  -3.00    Nose mass-parameter (am)
   estimated Nose-frequenzy (Omega)   =  0.10E-29 period in steps = 0.13E+47 mass=  -0.914E-26a.u.
   SCALEE = 1.0000    scale energy and forces
   NPACO  =    256;   APACO  = 10.0  distance and # of slots for P.C.
   PSTRESS=    0.0 pullay stress

  Mass of Ions in am
   POMASS = 107.87
  Ionic Valenz
   ZVAL   =  11.00
  Atomic Wigner-Seitz radii
   RWIGS  =  -1.00
  virtual crystal weights 
   VCA    =   1.00
   NELECT =      88.0000    total number of electrons
   NUPDOWN=      -1.0000    fix difference up-down

 DOS related values:
   EMIN   =  10.00;   EMAX   =-10.00  energy-range for DOS
   EFERMI =   0.00;   METHOD = LEGACY      
   ISMEAR =     0;   SIGMA  =   0.05  broadening in eV -4-tet -1-fermi 0-gaus

 Electronic relaxation 2 (details)
   IALGO  =     58    algorithm
   LDIAG  =      T    sub-space diagonalisation (order eigenvalues)
   LSUBROT=      F    optimize rotation matrix (better conditioning)
   TURBO    =      0    0=normal 1=particle mesh
   IRESTART =      0    0=no restart 2=restart with 2 vectors
   NREBOOT  =      0    no. of reboots
   NMIN     =      0    reboot dimension
   EREF     =   0.00    reference energy to select bands
   IMIX   =      4    mixing-type and parameters
     AMIX     =   0.40;   BMIX     =  1.00
     AMIX_MAG =   1.60;   BMIX_MAG =  1.00
     AMIN     =   0.10
     WC   =   100.;   INIMIX=   1;  MIXPRE=   1;  MAXMIX= -45

 Intra band minimization:
   WEIMIN = 0.0000     energy-eigenvalue tresh-hold
   EBREAK =  0.39E-08  absolut break condition
   DEPER  =   0.30     relativ break condition  

   TIME   =   0.40     timestep for ELM

  volume/ion in A,a.u.               =    1000.00      6748.33
  Fermi-wavevector in a.u.,A,eV,Ry     =   0.364087  0.688026  1.803584  0.132560
  Thomas-Fermi vector in A             =   1.286639
 
 Write flags
   LWAVE        =      F    write WAVECAR
   LDOWNSAMPLE  =      F    k-point downsampling of WAVECAR
   LCHARG       =      F    write CHGCAR
   LVTOT        =      F    write LOCPOT, total local potential
   LVHAR        =      F    write LOCPOT, Hartree potential only
   LELF         =      F    write electronic localiz. function (ELF)
   LORBIT       =      0    0 simple, 1 ext, 2 COOP (PROOUT), +10 PAW based schemes


 Dipole corrections
   LMONO  =      F    monopole corrections only (constant potential shift)
   LDIPOL =      F    correct potential (dipole corrections)
   IDIPOL =      0    1-x, 2-y, 3-z, 4-all directions 
   EPSILON=  1.0000000 bulk dielectric constant

 Exchange correlation treatment:
   GGA     =    B5    GGA type
   LEXCH   =    12    internal setting for exchange type
   LIBXC   =     F    Libxc                    
   VOSKOWN =     0    Vosko Wilk Nusair interpolation
   EXXOEP  =     0    0=HF, 1=EXX-LHF (local Hartree Fock) 2=EXX OEP
   LHFCALC =     T    Hartree Fock is set to
   LSYMGRAD=     F    symmetrize gradient (conserves proper symmetry)
   PRECFOCK=normal    Normal, Fast or Accurate (Low or Medium for compatibility)
   LRHFCALC=     F    long range Hartree Fock
   LRSCOR  =     F    long range correlation only (use DFT for short range part)
   LTHOMAS =     F    Thomas Fermi screening in HF
   LMODELHF=     F    short range full HF, long range fraction AEXX
   FOCKCORR=     1    mode to apply convergence corrections
   LFOCKACE=     T    use Adeptively-Compressed-Exchange operator
   ENCUT4O =  -1.0   cutoff for four orbital integrals eV
   LMAXFOCK=     4    L truncation for augmentation on plane wave grid
   LMAXFOCKAE=  -1    L truncation for all-electron charge restoration on plane wave grid
   NMAXFOCKAE=   1    number of basis functions for all-electron charge restoration
   LFOCKAEDFT=     F  apply the AE augmentation even for DFT
   NKREDX  =     1    reduce k-point grid by
   NKREDY  =     1    reduce k-point grid by
   NKREDZ  =     1    reduce k-point grid by
   SHIFTRED=     F    shift reduced grid of Gamma
   HFKIDENT=     F    idential grid for each k-point
   ODDONLY =     F    use only odd q-grid points
   EVENONLY=     F    use only even q-grid points
   HFALPHA =   -1.0000 decay constant for conv. correction
   MCALPHA =    0.0000 extent of test-charge in conv. correction in multipole expansion
   AEXX    =    0.2000 exact exchange contribution
   HFSCREEN=    0.0000 screening length (either q_TF or 0.3 A-1)
   HFSCREENC=   0.0000 screening length for correlation (either q_TF or 0.3 A-1)
   HFRCUT  =    0.0000 spherical cutoff for potential kernel
   ALDAX   =    0.8000 LDA exchange part
   AGGAX   =    0.7200 GGA exchange part
   ALDAC   =    0.1900 LDA correlation
   AGGAC   =    0.8100 GGA correlation
   ENCUTFOCK=  -1.0 apply spherical cutoff to Coloumb kernel
   NBANDSGWLOW=     1    first orbital included in HF term
   NBLOCK_FOCK=    64    blocking factor in FOCK_ACC

 Linear response parameters
   LEPSILON=     F    determine dielectric tensor
   LRPA    =     F    only Hartree local field effects (RPA)
   LNABLA  =     F    use nabla operator in PAW spheres
   LVEL    =     F    velocity operator in full k-point grid
   CSHIFT  =0.1000    complex shift for real part using Kramers Kronig
   OMEGAMAX=  -1.0    maximum frequency
   DEG_THRESHOLD= 0.2000000E-02 threshold for treating states as degnerate
   RTIME   =   -0.100 relaxation time in fs
  (WPLASMAI=    0.000 imaginary part of plasma frequency in eV, 0.658/RTIME)
   DFIELD  = 0.0000000 0.0000000 0.0000000 field for delta impulse in time
 
  Optional k-point grid parameters
   LKPOINTS_OPT  =     F    use optional k-point grid
   KPOINTS_OPT_MODE=     1    mode for optional k-point grid
 
 Orbital magnetization related:
   ORBITALMAG=     F  switch on orbital magnetization
   LCHIMAG   =     F  perturbation theory with respect to B field
   DQ        =  0.001000  dq finite difference perturbation B field
   LLRAUG    =     F  two centre corrections for induced B field
   LBONE     =     F  B-component reconstruction in AE one-centre
   LVGVCALC  =     T  calculate vGv susceptibility
   LVGVAPPL  =     F  apply vGv susceptibility instead of pGv for G=0

 Random number generation:
   RANDOM_GENERATOR = DEFAULT
   PCG_SEED         = not used


--------------------------------------------------------------------------------------------------------


 Static calculation
 charge density and potential will be updated during run
 non-spin polarized calculation
 Conjugate gradient for all bands (Freysoldt, et al. PRB 79, 241103 (2009))
 preconditioned conjugated gradient                                        
 perform sub-space diagonalisation
    before iterative eigenvector-optimisation
 modified Broyden-mixing scheme, WC =      100.0
 initial mixing is a Kerker type mixing with AMIX =  0.4000 and BMIX =      1.0000
 Hartree-type preconditioning will be used
 using additional bands           20
 real space projection scheme for non local part
 use partial core corrections
 no Harris-corrections to forces 
 use gradient corrections 
 use of overlap-Matrix (Vanderbilt PP)
 Gauss-broadening in eV      SIGMA  =   0.05


--------------------------------------------------------------------------------------------------------


  energy-cutoff  :      520.00
  volume of cell :     8000.00
      direct lattice vectors                 reciprocal lattice vectors
    20.000000000  0.000000000  0.000000000     0.050000000  0.000000000  0.000000000
     0.000000000 20.000000000  0.000000000     0.000000000  0.050000000  0.000000000
     0.000000000  0.000000000 20.000000000     0.000000000  0.000000000  0.050000000

  length of vectors
    20.000000000 20.000000000 20.000000000     0.050000000  0.050000000  0.050000000


 
 k-points in units of 2pi/SCALE and weight: KPOINTS created by Atomic Simulation Env
   0.00000000  0.00000000  0.00000000       1.000
 
 k-points in reciprocal lattice and weights: KPOINTS created by Atomic Simulation Env
   0.00000000  0.00000000  0.00000000       1.000
 
 position of ions in fractional coordinates (direct lattice) 
   0.65329139  0.42275152  0.45598645
   0.43167649  0.57443961  0.51878552
   0.34406901  0.53336688  0.61233817
   0.45352874  0.45966371  0.58596917
   0.56367532  0.38579697  0.55692497
   0.54441777  0.49885913  0.48820679
   0.63172299  0.53598001  0.38977960
   0.52051673  0.61363874  0.42392298
 
 position of ions in cartesian coordinates  (Angst):
  13.06582786  8.45503032  9.11972898
   8.63352971 11.48879224 10.37571050
   6.88138014 10.66733752 12.24676340
   9.07057478  9.19327416 11.71938336
  11.27350643  7.71593945 11.13849936
  10.88835546  9.97718258  9.76413571
  12.63445979 10.71960022  7.79559192
  10.41033470 12.27277482  8.47845963
 


--------------------------------------------------------------------------------------------------------


 k-point   1 :   0.0000 0.0000 0.0000  plane waves:  215503

 maximum and minimum number of plane-waves per node :     13480    13461

 maximum number of plane-waves:    215503
 maximum index in each direction: 
   IXMAX=   37   IYMAX=   37   IZMAX=   37
   IXMIN=  -37   IYMIN=  -37   IZMIN=  -37


 real space projection operators:
  total allocation   :       2224.69 KBytes
  max/ min on nodes  :        150.47        128.67


 parallel 3D FFT for wavefunctions:
    minimum data exchange during FFTs selected (reduces bandwidth)
 parallel 3D FFT for charge:
    minimum data exchange during FFTs selected (reduces bandwidth)

 
 Radii for the augmentation spheres in the non-local exchange
 for species   1 augmentation radius   1.406 (default was   1.125)
       energy cutoff for augmentation   2080.0

 real space projection operators:
  total allocation   :       3194.92 KBytes
  max/ min on nodes  :        215.43        185.55

 Maximum index for augmentation-charges in exchange          193
  SETUP_FOCK is finished

 total amount of memory used by VASP MPI-rank0    46851. kBytes
=======================================================================

   base      :      30000. kBytes
   nonlr-proj:        960. kBytes
   fftplans  :       7273. kBytes
   grid      :       5947. kBytes
   one-center:         15. kBytes
   HF        :         64. kBytes
   wavefun   :       2592. kBytes
 
     INWAV:  cpu time      0.0004: real time      0.0005
 Broyden mixing: mesh for mixing (old mesh)
   NGX = 75   NGY = 75   NGZ = 75
  (NGX  =224   NGY  =224   NGZ  =224)
  gives a total of 421875 points

 initial charge density was supplied:
 charge density of overlapping atoms calculated
 number of electron      88.0000000 magnetization 
 keeping initial charge density in first step


--------------------------------------------------------------------------------------------------------


 Maximum index for non-local projection operator          190
 Maximum index for augmentation-charges            0 (set IRDMAX)


--------------------------------------------------------------------------------------------------------


    FEWALD:  cpu time      0.0076: real time      0.0076


--------------------------------------- Ionic step        1  -------------------------------------------




--------------------------------------- Iteration      1(   1)  ---------------------------------------


    POTLOK:  cpu time      0.1904: real time      0.1944
    SETDIJ:  cpu time      0.7911: real time      0.7919
    TRIAL :  cpu time      0.6711: real time      0.9411
    CORREC:  cpu time      0.0098: real time      0.0098
    --------------------------------------------
      LOOP:  cpu time      1.6650: real time      1.9408

 eigenvalue-minimisations  :   128
 total energy-change (2. order) :-0.6423588E+04  (-0.1686462E+04)
 number of electron      88.0000000 magnetization 
 augmentation part       88.0000000 magnetization 

 Free energy of the ion-electron system (eV)
  ---------------------------------------------------
  alpha Z        PSCENC =         6.80462455
  Ewald energy   TEWEN  =      5933.77201978
  -Hartree energ DENC   =    -13860.89670587
  -exchange      EXHF   =         0.00000000
  -V(xc)+E(xc)   XCENC  =       -91.56143800
  PAW double counting   =      8027.69719461   -14784.17463214
  entropy T*S    EENTRO =        -0.04922074
  eigenvalues    EBANDS =        66.54272516
  atomic energy  EATOM  =      8278.27759130
  ---------------------------------------------------
  free energy    TOTEN  =     -6423.58784135 eV

  energy without entropy =    -6423.53862061  energy(sigma->0) =    -6423.56323098
  exchange ACFDT corr.  =         0.00000000  see jH, gK, PRB 81, 115126


--------------------------------------------------------------------------------------------------------




--------------------------------------- Iteration      1(   2)  ---------------------------------------


    TRIAL :  cpu time      0.5652: real time      0.5776
    CORREC:  cpu time      0.0019: real time      0.0019
    --------------------------------------------
      LOOP:  cpu time      0.5717: real time      0.5880

 eigenvalue-minimisations  :   256
 total energy-change (2. order) :-0.6310057E+03  (-0.5542462E+03)
 number of electron      88.0000000 magnetization 
 augmentation part       88.0000000 magnetization 

 Free energy of the ion-electron system (eV)
  ---------------------------------------------------
  alpha Z        PSCENC =         6.80462455
  Ewald energy   TEWEN  =      5933.77201978
  -Hartree energ DENC   =    -13860.89670587
  -exchange      EXHF   =         0.00000000
  -V(xc)+E(xc)   XCENC  =       -91.56143800
  PAW double counting   =      8027.69719461   -14784.17463214
  entropy T*S    EENTRO =        -0.00001639
  eigenvalues    EBANDS =      -564.51215970
  atomic energy  EATOM  =      8278.27759130
  ---------------------------------------------------
  free energy    TOTEN  =     -7054.59352185 eV

  energy without entropy =    -7054.59350546  energy(sigma->0) =    -7054.59351366
  exchange ACFDT corr.  =         0.00000000  see jH, gK, PRB 81, 115126


--------------------------------------------------------------------------------------------------------




--------------------------------------- Iteration      1(   3)  ---------------------------------------


    TRIAL :  cpu time      0.4428: real time      0.4410
    CORREC:  cpu time      0.0008: real time      0.0008
    --------------------------------------------
      LOOP:  cpu time      0.4473: real time      0.4495

 eigenvalue-minimisations  :   192
 total energy-change (2. order) :-0.3082379E+03  (-0.3017777E+03)
 number of electron      88.0000000 magnetization 
 augmentation part       88.0000000 magnetization 

 Free energy of the ion-electron system (eV)
  ---------------------------------------------------
  alpha Z        PSCENC =         6.80462455
  Ewald energy   TEWEN  =      5933.77201978
  -Hartree energ DENC   =    -13860.89670587
  -exchange      EXHF   =         0.00000000
  -V(xc)+E(xc)   XCENC  =       -91.56143800
  PAW double counting   =      8027.69719461   -14784.17463214
  entropy T*S    EENTRO =        -0.00000000
  eigenvalues    EBANDS =      -872.75012600
  atomic energy  EATOM  =      8278.27759130
  ---------------------------------------------------
  free energy    TOTEN  =     -7362.83147177 eV

  energy without entropy =    -7362.83147177  energy(sigma->0) =    -7362.83147177
  exchange ACFDT corr.  =         0.00000000  see jH, gK, PRB 81, 115126


--------------------------------------------------------------------------------------------------------




--------------------------------------- Iteration      1(   4)  ---------------------------------------


    TRIAL :  cpu time      0.3609: real time      0.3609
    CORREC:  cpu time      0.0007: real time      0.0007
    --------------------------------------------
      LOOP:  cpu time      0.3679: real time      0.3682

 eigenvalue-minimisations  :   144
 total energy-change (2. order) :-0.9038161E+01  (-0.9032470E+01)
 number of electron      88.0000000 magnetization 
 augmentation part       88.0000000 magnetization 

 Free energy of the ion-electron system (eV)
  ---------------------------------------------------
  alpha Z        PSCENC =         6.80462455
  Ewald energy   TEWEN  =      5933.77201978
  -Hartree energ DENC   =    -13860.89670587
  -exchange      EXHF   =         0.00000000
  -V(xc)+E(xc)   XCENC  =       -91.56143800
  PAW double counting   =      8027.69719461   -14784.17463214
  entropy T*S    EENTRO =        -0.00000000
  eigenvalues    EBANDS =      -881.78828689
  atomic energy  EATOM  =      8278.27759130
  ---------------------------------------------------
  free energy    TOTEN  =     -7371.86963265 eV

  energy without entropy =    -7371.86963265  energy(sigma->0) =    -7371.86963265
  exchange ACFDT corr.  =         0.00000000  see jH, gK, PRB 81, 115126


--------------------------------------------------------------------------------------------------------




--------------------------------------- Iteration      1(   5)  ---------------------------------------


    POTLOK:  cpu time      0.3987: real time      0.3985
    SETDIJ:  cpu time      2.3090: real time      2.3111
    TRIAL :  cpu time      4.1955: real time      4.1988
    CORREC:  cpu time      0.0007: real time      0.0007
    CHARGE:  cpu time      0.0711: real time      0.0719
    --------------------------------------------
      LOOP:  cpu time      6.9779: real time      6.9886

 eigenvalue-minimisations  :   160
 total energy-change (2. order) : 0.7357849E+04  (-0.5225414E+01)
 number of electron      88.0000034 magnetization 
 augmentation part       42.6722383 magnetization 

 Free energy of the ion-electron system (eV)
  ---------------------------------------------------
  alpha Z        PSCENC =         6.80462455
  Ewald energy   TEWEN  =      5933.77201978
  -Hartree energ DENC   =    -13860.89670587
  -exchange      EXHF   =       179.90721028
  -V(xc)+E(xc)   XCENC  =       -78.98697682
  PAW double counting   =      8013.30395174    -7695.46685536
  entropy T*S    EENTRO =        -0.00000000
  eigenvalues    EBANDS =      -790.73523868
  atomic energy  EATOM  =      8278.27759130
  ---------------------------------------------------
  free energy    TOTEN  =       -14.02037908 eV

  energy without entropy =      -14.02037908  energy(sigma->0) =      -14.02037908
  exchange ACFDT corr.  =        -0.00000000  see jH, gK, PRB 81, 115126


--------------------------------------------------------------------------------------------------------




--------------------------------------- Iteration      1(   6)  ---------------------------------------


    POTLOK:  cpu time      0.4331: real time      0.4528
    SETDIJ:  cpu time      2.3088: real time      2.3109
    TRIAL :  cpu time      4.0153: real time      4.0364
    CORREC:  cpu time      6.5000: real time      6.5043
    CHARGE:  cpu time      0.0308: real time      0.0307
    --------------------------------------------
      LOOP:  cpu time     13.2974: real time     13.3496

 eigenvalue-minimisations  :     0
 total energy-change (2. order) : 0.2004407E+01  (-0.1536096E+01)
 number of electron      88.0000034 magnetization 
 augmentation part       42.4092259 magnetization 

 Free energy of the ion-electron system (eV)
  ---------------------------------------------------
  alpha Z        PSCENC =         6.80462455
  Ewald energy   TEWEN  =      5933.77201978
  -Hartree energ DENC   =    -14019.75412496
  -exchange      EXHF   =       173.89395791
  -V(xc)+E(xc)   XCENC  =       -78.41065656
  PAW double counting   =      9306.48196077    -8998.96653364
  entropy T*S    EENTRO =        -0.00000000
  eigenvalues    EBANDS =      -614.11481088
  atomic energy  EATOM  =      8278.27759130
  ---------------------------------------------------
  free energy    TOTEN  =       -12.01597173 eV

  energy without entropy =      -12.01597173  energy(sigma->0) =      -12.01597173
  exchange ACFDT corr.  =        -0.00000000  see jH, gK, PRB 81, 115126


--------------------------------------------------------------------------------------------------------




--------------------------------------- Iteration      1(   7)  ---------------------------------------


    POTLOK:  cpu time      0.4184: real time      0.4191
    SETDIJ:  cpu time      2.3184: real time      2.3198
    TRIAL :  cpu time      3.7811: real time      3.8047
    CORREC:  cpu time      6.4373: real time      6.4414
    CHARGE:  cpu time      0.0301: real time      0.0301
    --------------------------------------------
      LOOP:  cpu time     12.9925: real time     13.0223

 eigenvalue-minimisations  :     0
 total energy-change (2. order) :-0.1539818E+01  (-0.1820594E+00)
 number of electron      88.0000034 magnetization 
 augmentation part       42.6158818 magnetization 

 Free energy of the ion-electron system (eV)
  ---------------------------------------------------
  alpha Z        PSCENC =         6.80462455
  Ewald energy   TEWEN  =      5933.77201978
  -Hartree energ DENC   =    -13886.48695005
  -exchange      EXHF   =       172.66284180
  -V(xc)+E(xc)   XCENC  =       -79.92043472
  PAW double counting   =      9168.69539429    -8860.41433063
  entropy T*S    EENTRO =        -0.00000000
  eigenvalues    EBANDS =      -746.94654579
  atomic energy  EATOM  =      8278.27759130
  ---------------------------------------------------
  free energy    TOTEN  =       -13.55578946 eV

  energy without entropy =      -13.55578946  energy(sigma->0) =      -13.55578946
  exchange ACFDT corr.  =        -0.00000000  see jH, gK, PRB 81, 115126


--------------------------------------------------------------------------------------------------------




--------------------------------------- Iteration      1(   8)  ---------------------------------------


    POTLOK:  cpu time      0.4165: real time      0.4163
    SETDIJ:  cpu time      2.3205: real time      2.3228
    TRIAL :  cpu time      3.7708: real time      3.7735
    CORREC:  cpu time      6.4340: real time      6.4385
    CHARGE:  cpu time      0.0287: real time      0.0287
    --------------------------------------------
      LOOP:  cpu time     12.9738: real time     12.9873

 eigenvalue-minimisations  :     0
 total energy-change (2. order) :-0.1824125E+00  (-0.8176857E-01)
 number of electron      88.0000034 magnetization 
 augmentation part       42.5275754 magnetization 

 Free energy of the ion-electron system (eV)
  ---------------------------------------------------
  alpha Z        PSCENC =         6.80462455
  Ewald energy   TEWEN  =      5933.77201978
  -Hartree energ DENC   =    -13903.99412841
  -exchange      EXHF   =       173.15884333
  -V(xc)+E(xc)   XCENC  =       -79.29390155
  PAW double counting   =      9138.69328150    -8830.75762246
  entropy T*S    EENTRO =        -0.00000000
  eigenvalues    EBANDS =      -730.39890998
  atomic energy  EATOM  =      8278.27759130
  ---------------------------------------------------
  free energy    TOTEN  =       -13.73820194 eV

  energy without entropy =      -13.73820194  energy(sigma->0) =      -13.73820194
  exchange ACFDT corr.  =        -0.00000000  see jH, gK, PRB 81, 115126


--------------------------------------------------------------------------------------------------------




--------------------------------------- Iteration      1(   9)  ---------------------------------------


    POTLOK:  cpu time      0.4108: real time      0.4115
    SETDIJ:  cpu time      2.3181: real time      2.3195
    TRIAL :  cpu time      3.7592: real time      3.7632
    CORREC:  cpu time      6.4064: real time      6.4113
    CHARGE:  cpu time      0.0298: real time      0.0298
    --------------------------------------------
      LOOP:  cpu time     12.9276: real time     12.9427

 eigenvalue-minimisations  :     0
 total energy-change (2. order) :-0.8150891E-01  (-0.2406223E-01)
 number of electron      88.0000034 magnetization 
 augmentation part       42.5460658 magnetization 

 Free energy of the ion-electron system (eV)
  ---------------------------------------------------
  alpha Z        PSCENC =         6.80462455
  Ewald energy   TEWEN  =      5933.77201978
  -Hartree energ DENC   =    -13887.15068398
  -exchange      EXHF   =       172.87964489
  -V(xc)+E(xc)   XCENC  =       -79.61529198
  PAW double counting   =      9099.35351047    -8791.32762723
  entropy T*S    EENTRO =        -0.00000000
  eigenvalues    EBANDS =      -746.81349864
  atomic energy  EATOM  =      8278.27759130
  ---------------------------------------------------
  free energy    TOTEN  =       -13.81971084 eV

  energy without entropy =      -13.81971084  energy(sigma->0) =      -13.81971084
  exchange ACFDT corr.  =        -0.00000000  see jH, gK, PRB 81, 115126


--------------------------------------------------------------------------------------------------------




--------------------------------------- Iteration      1(  10)  ---------------------------------------


    POTLOK:  cpu time      0.4088: real time      0.4088
    SETDIJ:  cpu time      2.3201: real time      2.3222
    TRIAL :  cpu time      3.8212: real time      3.8236
    CORREC:  cpu time      6.3993: real time      6.4040
    CHARGE:  cpu time      0.0292: real time      0.0292
    --------------------------------------------
      LOOP:  cpu time     12.9865: real time     12.9998

 eigenvalue-minimisations  :     0
 total energy-change (2. order) :-0.2402965E-01  (-0.5513214E-02)
 number of electron      88.0000034 magnetization 
 augmentation part       42.5577510 magnetization 

 Free energy of the ion-electron system (eV)
  ---------------------------------------------------
  alpha Z        PSCENC =         6.80462455
  Ewald energy   TEWEN  =      5933.77201978
  -Hartree energ DENC   =    -13883.08754205
  -exchange      EXHF   =       172.89481145
  -V(xc)+E(xc)   XCENC  =       -79.61073407
  PAW double counting   =      9093.55765193    -8785.35652083
  entropy T*S    EENTRO =        -0.00000000
  eigenvalues    EBANDS =      -751.09564257
  atomic energy  EATOM  =      8278.27759130
  ---------------------------------------------------
  free energy    TOTEN  =       -13.84374050 eV

  energy without entropy =      -13.84374050  energy(sigma->0) =      -13.84374050
  exchange ACFDT corr.  =        -0.00000000  see jH, gK, PRB 81, 115126


--------------------------------------------------------------------------------------------------------




--------------------------------------- Iteration      1(  11)  ---------------------------------------


    POTLOK:  cpu time      0.4022: real time      0.4028
    SETDIJ:  cpu time      2.3183: real time      2.3198
    TRIAL :  cpu time      3.7348: real time      3.7373
    CORREC:  cpu time      6.4013: real time      6.4071
    CHARGE:  cpu time      0.0287: real time      0.0287
    --------------------------------------------
      LOOP:  cpu time     12.8885: real time     12.9028

 eigenvalue-minimisations  :     0
 total energy-change (2. order) :-0.5509715E-02  (-0.2181600E-02)
 number of electron      88.0000034 magnetization 
 augmentation part       42.5551445 magnetization 

 Free energy of the ion-electron system (eV)
  ---------------------------------------------------
  alpha Z        PSCENC =         6.80462455
  Ewald energy   TEWEN  =      5933.77201978
  -Hartree energ DENC   =    -13883.29226318
  -exchange      EXHF   =       172.91593905
  -V(xc)+E(xc)   XCENC  =       -79.59182126
  PAW double counting   =      9092.85930404    -8784.58412262
  entropy T*S    EENTRO =        -0.00000000
  eigenvalues    EBANDS =      -751.01052186
  atomic energy  EATOM  =      8278.27759130
  ---------------------------------------------------
  free energy    TOTEN  =       -13.84925021 eV

  energy without entropy =      -13.84925021  energy(sigma->0) =      -13.84925021
  exchange ACFDT corr.  =        -0.00000000  see jH, gK, PRB 81, 115126


--------------------------------------------------------------------------------------------------------




--------------------------------------- Iteration      1(  12)  ---------------------------------------


    POTLOK:  cpu time      0.3944: real time      0.3943
    SETDIJ:  cpu time      2.3164: real time      2.3186
    TRIAL :  cpu time      3.7440: real time      3.7468
    CORREC:  cpu time      6.3976: real time      6.4022
    CHARGE:  cpu time      0.0287: real time      0.0287
    --------------------------------------------
      LOOP:  cpu time     12.8855: real time     12.8986

 eigenvalue-minimisations  :     0
 total energy-change (2. order) :-0.2191819E-02  (-0.5046303E-03)
 number of electron      88.0000034 magnetization 
 augmentation part       42.5529560 magnetization 

 Free energy of the ion-electron system (eV)
  ---------------------------------------------------
  alpha Z        PSCENC =         6.80462455
  Ewald energy   TEWEN  =      5933.77201978
  -Hartree energ DENC   =    -13882.61090979
  -exchange      EXHF   =       172.90729529
  -V(xc)+E(xc)   XCENC  =       -79.60484679
  PAW double counting   =      9090.36752458    -8782.04846990
  entropy T*S    EENTRO =        -0.00000000
  eigenvalues    EBANDS =      -751.71627106
  atomic energy  EATOM  =      8278.27759130
  ---------------------------------------------------
  free energy    TOTEN  =       -13.85144203 eV

  energy without entropy =      -13.85144203  energy(sigma->0) =      -13.85144203
  exchange ACFDT corr.  =        -0.00000000  see jH, gK, PRB 81, 115126


--------------------------------------------------------------------------------------------------------




--------------------------------------- Iteration      1(  13)  ---------------------------------------


    POTLOK:  cpu time      0.3945: real time      0.3944
    SETDIJ:  cpu time      2.3208: real time      2.3230
    TRIAL :  cpu time      3.7587: real time      3.7615
    CORREC:  cpu time      6.3811: real time      6.3861
    CHARGE:  cpu time      0.0292: real time      0.0292
    --------------------------------------------
      LOOP:  cpu time     12.8869: real time     12.9010

 eigenvalue-minimisations  :     0
 total energy-change (2. order) :-0.5108020E-03  (-0.1457759E-03)
 number of electron      88.0000034 magnetization 
 augmentation part       42.5549727 magnetization 

 Free energy of the ion-electron system (eV)
  ---------------------------------------------------
  alpha Z        PSCENC =         6.80462455
  Ewald energy   TEWEN  =      5933.77201978
  -Hartree energ DENC   =    -13882.40199420
  -exchange      EXHF   =       172.90088581
  -V(xc)+E(xc)   XCENC  =       -79.61121614
  PAW double counting   =      9088.31470631    -8779.99648694
  entropy T*S    EENTRO =        -0.00000000
  eigenvalues    EBANDS =      -751.91208330
  atomic energy  EATOM  =      8278.27759130
  ---------------------------------------------------
  free energy    TOTEN  =       -13.85195283 eV

  energy without entropy =      -13.85195283  energy(sigma->0) =      -13.85195283
  exchange ACFDT corr.  =        -0.00000000  see jH, gK, PRB 81, 115126


--------------------------------------------------------------------------------------------------------




--------------------------------------- Iteration      1(  14)  ---------------------------------------


    POTLOK:  cpu time      0.3901: real time      0.3908
    SETDIJ:  cpu time      2.3157: real time      2.3172
    TRIAL :  cpu time      3.7541: real time      3.7575
    CORREC:  cpu time      6.4088: real time      6.4135
    CHARGE:  cpu time      0.0289: real time      0.0290
    --------------------------------------------
      LOOP:  cpu time     12.9019: real time     12.9158

 eigenvalue-minimisations  :     0
 total energy-change (2. order) :-0.1459152E-03  (-0.5474904E-04)
 number of electron      88.0000034 magnetization 
 augmentation part       42.5545579 magnetization 

 Free energy of the ion-electron system (eV)
  ---------------------------------------------------
  alpha Z        PSCENC =         6.80462455
  Ewald energy   TEWEN  =      5933.77201978
  -Hartree energ DENC   =    -13882.81123877
  -exchange      EXHF   =       172.90669169
  -V(xc)+E(xc)   XCENC  =       -79.60319666
  PAW double counting   =      9087.87047179    -8779.56092402
  entropy T*S    EENTRO =        -0.00000000
  eigenvalues    EBANDS =      -751.50813842
  atomic energy  EATOM  =      8278.27759130
  ---------------------------------------------------
  free energy    TOTEN  =       -13.85209875 eV

  energy without entropy =      -13.85209875  energy(sigma->0) =      -13.85209875
  exchange ACFDT corr.  =        -0.00000000  see jH, gK, PRB 81, 115126


--------------------------------------------------------------------------------------------------------




--------------------------------------- Iteration      1(  15)  ---------------------------------------


    POTLOK:  cpu time      0.3893: real time      0.3893
    SETDIJ:  cpu time      2.3160: real time      2.3179
    TRIAL :  cpu time      3.7475: real time      3.7505
    CORREC:  cpu time      6.4027: real time      6.4078
    CHARGE:  cpu time      0.0288: real time      0.0288
    --------------------------------------------
      LOOP:  cpu time     12.8873: real time     12.9011

 eigenvalue-minimisations  :     0
 total energy-change (2. order) :-0.5522135E-04  (-0.1836320E-04)
 number of electron      88.0000034 magnetization 
 augmentation part       42.5540021 magnetization 

 Free energy of the ion-electron system (eV)
  ---------------------------------------------------
  alpha Z        PSCENC =         6.80462455
  Ewald energy   TEWEN  =      5933.77201978
  -Hartree energ DENC   =    -13882.77308078
  -exchange      EXHF   =       172.90522099
  -V(xc)+E(xc)   XCENC  =       -79.60467927
  PAW double counting   =      9087.76479605    -8779.45707717
  entropy T*S    EENTRO =        -0.00000000
  eigenvalues    EBANDS =      -751.54156943
  atomic energy  EATOM  =      8278.27759130
  ---------------------------------------------------
  free energy    TOTEN  =       -13.85215397 eV

  energy without entropy =      -13.85215397  energy(sigma->0) =      -13.85215397
  exchange ACFDT corr.  =        -0.00000000  see jH, gK, PRB 81, 115126


--------------------------------------------------------------------------------------------------------




--------------------------------------- Iteration      1(  16)  ---------------------------------------


    POTLOK:  cpu time      0.3908: real time      0.3915
    SETDIJ:  cpu time      2.3162: real time      2.3176
    TRIAL :  cpu time      3.7409: real time      3.7440
    CORREC:  cpu time      6.4001: real time      6.4053
    CHARGE:  cpu time      0.0289: real time      0.0297
    --------------------------------------------
      LOOP:  cpu time     12.8791: real time     12.8952

 eigenvalue-minimisations  :     0
 total energy-change (2. order) :-0.1712948E-04  (-0.8563930E-05)
 number of electron      88.0000034 magnetization 
 augmentation part       42.5541177 magnetization 

 Free energy of the ion-electron system (eV)
  ---------------------------------------------------
  alpha Z        PSCENC =         6.80462455
  Ewald energy   TEWEN  =      5933.77201978
  -Hartree energ DENC   =    -13882.68608584
  -exchange      EXHF   =       172.90342019
  -V(xc)+E(xc)   XCENC  =       -79.60670487
  PAW double counting   =      9087.88948267    -8779.58053953
  entropy T*S    EENTRO =        -0.00000000
  eigenvalues    EBANDS =      -751.62597936
  atomic energy  EATOM  =      8278.27759130
  ---------------------------------------------------
  free energy    TOTEN  =       -13.85217110 eV

  energy without entropy =      -13.85217110  energy(sigma->0) =      -13.85217110
  exchange ACFDT corr.  =        -0.00000000  see jH, gK, PRB 81, 115126


--------------------------------------------------------------------------------------------------------




--------------------------------------- Iteration      1(  17)  ---------------------------------------


    POTLOK:  cpu time      0.3904: real time      0.3904
    SETDIJ:  cpu time      2.3197: real time      2.3217
    TRIAL :  cpu time      3.7777: real time      3.7803
    CORREC:  cpu time      6.4346: real time      6.4392
    CHARGE:  cpu time      0.0300: real time      0.0301
    --------------------------------------------
      LOOP:  cpu time     12.9576: real time     12.9705

 eigenvalue-minimisations  :     0
 total energy-change (2. order) :-0.7303481E-05  (-0.3948793E-05)
 number of electron      88.0000034 magnetization 
 augmentation part       42.5543655 magnetization 

 Free energy of the ion-electron system (eV)
  ---------------------------------------------------
  alpha Z        PSCENC =         6.80462455
  Ewald energy   TEWEN  =      5933.77201978
  -Hartree energ DENC   =    -13882.70841333
  -exchange      EXHF   =       172.90368488
  -V(xc)+E(xc)   XCENC  =       -79.60649122
  PAW double counting   =      9088.09117266    -8779.78158365
  entropy T*S    EENTRO =        -0.00000000
  eigenvalues    EBANDS =      -751.60478337
  atomic energy  EATOM  =      8278.27759130
  ---------------------------------------------------
  free energy    TOTEN  =       -13.85217840 eV

  energy without entropy =      -13.85217840  energy(sigma->0) =      -13.85217840
  exchange ACFDT corr.  =        -0.00000000  see jH, gK, PRB 81, 115126


--------------------------------------------------------------------------------------------------------




--------------------------------------- Iteration      1(  18)  ---------------------------------------


    POTLOK:  cpu time      0.3891: real time      0.3891
    SETDIJ:  cpu time      2.3206: real time      2.3229
    TRIAL :  cpu time      3.7481: real time      3.7509
    CORREC:  cpu time      6.4267: real time      6.4319
    CHARGE:  cpu time      0.0296: real time      0.0296
    --------------------------------------------
      LOOP:  cpu time     12.9174: real time     12.9312

 eigenvalue-minimisations  :     0
 total energy-change (2. order) :-0.2657087E-05  (-0.1817978E-05)
 number of electron      88.0000034 magnetization 
 augmentation part       42.5544710 magnetization 

 Free energy of the ion-electron system (eV)
  ---------------------------------------------------
  alpha Z        PSCENC =         6.80462455
  Ewald energy   TEWEN  =      5933.77201978
  -Hartree energ DENC   =    -13882.75108498
  -exchange      EXHF   =       172.90439637
  -V(xc)+E(xc)   XCENC  =       -79.60555767
  PAW double counting   =      9088.23159077    -8779.92185074
  entropy T*S    EENTRO =        -0.00000000
  eigenvalues    EBANDS =      -751.56391045
  atomic energy  EATOM  =      8278.27759130
  ---------------------------------------------------
  free energy    TOTEN  =       -13.85218106 eV

  energy without entropy =      -13.85218106  energy(sigma->0) =      -13.85218106
  exchange ACFDT corr.  =        -0.00000000  see jH, gK, PRB 81, 115126


--------------------------------------------------------------------------------------------------------




--------------------------------------- Iteration      1(  19)  ---------------------------------------


    POTLOK:  cpu time      0.3893: real time      0.3901
    SETDIJ:  cpu time      2.3162: real time      2.3176
    TRIAL :  cpu time      3.7606: real time      3.7640
    CORREC:  cpu time      6.4093: real time      6.4141
    CHARGE:  cpu time      0.0293: real time      0.0293
    --------------------------------------------
      LOOP:  cpu time     12.9076: real time     12.9222

 eigenvalue-minimisations  :     0
 total energy-change (2. order) :-0.9067135E-06  (-0.1333309E-05)
 number of electron      88.0000034 magnetization 
 augmentation part       42.5544534 magnetization 

 Free energy of the ion-electron system (eV)
  ---------------------------------------------------
  alpha Z        PSCENC =         6.80462455
  Ewald energy   TEWEN  =      5933.77201978
  -Hartree energ DENC   =    -13882.77003004
  -exchange      EXHF   =       172.90471273
  -V(xc)+E(xc)   XCENC  =       -79.60527254
  PAW double counting   =      9088.29541624    -8779.98563980
  entropy T*S    EENTRO =        -0.00000000
  eigenvalues    EBANDS =      -751.54560419
  atomic energy  EATOM  =      8278.27759130
  ---------------------------------------------------
  free energy    TOTEN  =       -13.85218197 eV

  energy without entropy =      -13.85218197  energy(sigma->0) =      -13.85218197
  exchange ACFDT corr.  =        -0.00000000  see jH, gK, PRB 81, 115126


--------------------------------------------------------------------------------------------------------




--------------------------------------- Iteration      1(  20)  ---------------------------------------


    POTLOK:  cpu time      0.3899: real time      0.3898
    SETDIJ:  cpu time      2.3200: real time      2.3221
    TRIAL :  cpu time      3.7493: real time      3.7523
    CORREC:  cpu time      6.3924: real time      6.3969
    EDDIAG:  cpu time      3.6787: real time      3.6801
    CHARGE:  cpu time      0.0296: real time      0.0296
    --------------------------------------------
      LOOP:  cpu time     16.5634: real time     16.5786

 eigenvalue-minimisations  :     0
 total energy-change (2. order) :-0.1281060E-06  (-0.6759075E-06)
 number of electron      88.0000034 magnetization 
 augmentation part       42.5543848 magnetization 

 Free energy of the ion-electron system (eV)
  ---------------------------------------------------
  alpha Z        PSCENC =         6.80462455
  Ewald energy   TEWEN  =      5933.77201978
  -Hartree energ DENC   =    -13882.76941917
  -exchange      EXHF   =       172.90449004
  -V(xc)+E(xc)   XCENC  =       -79.60520901
  PAW double counting   =      9088.32084668    -8780.01102588
  entropy T*S    EENTRO =        -0.00000000
  eigenvalues    EBANDS =      -751.54629003
  atomic energy  EATOM  =      8278.27759130
  ---------------------------------------------------
  free energy    TOTEN  =       -13.85218209 eV

  energy without entropy =      -13.85218209  energy(sigma->0) =      -13.85218209
  exchange ACFDT corr.  =        -0.00000000  see jH, gK, PRB 81, 115126


--------------------------------------------------------------------------------------------------------


  average scaling for gradient   1.3842


 average (electrostatic) potential at core
  the test charge radii are     1.1249
  (the norm of the test charge is              1.0000)
       1 -76.8911       2 -76.9917       3 -76.4644       4 -76.9916       5 -76.9591
       6 -77.2551       7 -76.8917       8 -76.9595
 
 
 
 E-fermi :  -4.1343     XC(G=0):  -0.3800     alpha+bet : -0.2295

 Fermi energy:        -4.1342802179

 k-point     1 :       0.0000    0.0000    0.0000
  band No.  band energies     occupation 
      1     -10.3953      2.00000
      2     -10.3949      2.00000
      3     -10.3109      2.00000
      4     -10.0646      2.00000
      5      -9.7912      2.00000
      6      -9.6489      2.00000
      7      -9.6020      2.00000
      8      -9.5850      2.00000
      9      -9.5371      2.00000
     10      -9.4287      2.00000
     11      -9.2888      2.00000
     12      -9.2388      2.00000
     13      -9.2219      2.00000
     14      -9.1684      2.00000
     15      -9.1305      2.00000
     16      -9.1001      2.00000
     17      -9.0064      2.00000
     18      -8.6904      2.00000
     19      -8.6297      2.00000
     20      -8.5976      2.00000
     21      -8.5812      2.00000
     22      -8.4943      2.00000
     23      -8.4592      2.00000
     24      -8.4334      2.00000
     25      -8.4047      2.00000
     26      -8.3930      2.00000
     27      -8.3698      2.00000
     28      -8.3488      2.00000
     29      -8.3089      2.00000
     30      -8.2033      2.00000
     31      -8.1782      2.00000
     32      -8.1658      2.00000
     33      -8.0951      2.00000
     34      -8.0213      2.00000
     35      -7.9761      2.00000
     36      -7.9523      2.00000
     37      -7.9289      2.00000
     38      -7.7740      2.00000
     39      -7.6171      2.00000
     40      -7.5435      2.00000
     41      -7.4815      2.00000
     42      -6.1499      2.00000
     43      -5.6783      2.00000
     44      -4.3986      2.00000
     45      -2.8178      0.00000
     46      -2.3881      0.00000
     47      -1.6271      0.00000
     48      -1.5920      0.00000
     49      -1.0359      0.00000
     50      -0.5901      0.00000
     51      -0.4999      0.00000
     52      -0.4610      0.00000
     53      -0.2465      0.00000
     54      -0.0517      0.00000
     55       0.2382      0.00000
     56       0.5262      0.00000
     57       0.5334      0.00000
     58       0.5856      0.00000
     59       0.5952      0.00000
     60       0.6192      0.00000
     61       0.6462      0.00000
     62       0.6740      0.00000
     63       0.7147      0.00000
     64       0.8805      0.00000


--------------------------------------------------------------------------------------------------------


 soft charge-density along one line, spin component           1
         0         1         2         3         4         5         6         7         8         9
 total charge-density along one line
 
 pseudopotential strength for first ion, spin component:           1
 -8.941   0.008  -0.017   0.007   0.001  -8.992   0.007  -0.016
  0.008  -8.935   0.006   0.010  -0.011   0.007  -8.986   0.006
 -0.017   0.006  -8.925   0.003  -0.003  -0.016   0.006  -8.976
  0.007   0.010   0.003  -8.925   0.006   0.007   0.010   0.003
  0.001  -0.011  -0.003   0.006  -8.938   0.001  -0.011  -0.002
 -8.992   0.007  -0.016   0.007   0.001  -9.015   0.007  -0.015
  0.007  -8.986   0.006   0.010  -0.011   0.007  -9.010   0.006
 -0.016   0.006  -8.976   0.003  -0.002  -0.015   0.006  -9.000
  0.007   0.010   0.003  -8.976   0.006   0.006   0.010   0.003
  0.001  -0.011  -0.002   0.006  -8.989   0.001  -0.010  -0.002
 -0.006  -0.008  -0.003  -0.006  -0.002  -0.006  -0.008  -0.003
 -0.010  -0.013  -0.004  -0.009  -0.004  -0.010  -0.013  -0.004
  0.016   0.004   0.014   0.000   0.025   0.015   0.004   0.014
  0.000  -0.025   0.006   0.016   0.001   0.000  -0.024   0.006
 -0.025   0.000  -0.009   0.006   0.016  -0.024   0.000  -0.009
  0.019   0.005   0.017   0.000   0.030   0.018   0.005   0.016
  0.000  -0.030   0.008   0.018   0.001   0.000  -0.029   0.008
 -0.030   0.000  -0.011   0.008   0.019  -0.029   0.000  -0.011
 total augmentation occupancy for first ion, spin component:           1
  2.380   0.085   0.106  -0.045   0.095  -0.474  -0.032  -0.165   0.066  -0.075   0.506  -0.151   0.094  -0.025  -0.054   0.001
  0.085   2.351   0.043  -0.051   0.141  -0.032  -0.450  -0.005   0.059  -0.202   0.706  -0.171   0.068  -0.053  -0.011  -0.003
  0.106   0.043   2.264  -0.053   0.084  -0.165  -0.005  -0.301   0.066  -0.079   0.203  -0.064   0.055  -0.028  -0.021   0.004
 -0.045  -0.051  -0.053   2.498  -0.219   0.066   0.059   0.065  -0.530   0.240   0.518  -0.142  -0.041   0.118  -0.096   0.002
  0.095   0.141   0.084  -0.219   2.442  -0.075  -0.202  -0.079   0.240  -0.503   0.209  -0.043   0.091  -0.097   0.057   0.008
 -0.474  -0.032  -0.165   0.066  -0.075   0.556  -0.013   0.218  -0.084   0.059  -0.435   0.125  -0.115   0.024   0.077   0.010
 -0.032  -0.450  -0.005   0.059  -0.202  -0.013   0.537  -0.028  -0.068   0.257  -0.637   0.160  -0.069   0.070   0.013   0.005
 -0.165  -0.005  -0.301   0.065  -0.079   0.218  -0.028   0.332  -0.076   0.076  -0.171   0.050  -0.068   0.028   0.033   0.005
  0.066   0.059   0.066  -0.530   0.240  -0.084  -0.068  -0.076   0.558  -0.259  -0.472   0.136   0.037  -0.131   0.096  -0.002
 -0.075  -0.202  -0.079   0.240  -0.503   0.059   0.257   0.076  -0.259   0.557  -0.184   0.037  -0.107   0.094  -0.072   0.008
  0.506   0.706   0.203   0.518   0.209  -0.435  -0.637  -0.171  -0.472  -0.184   3.099  -0.742   0.224   0.003  -0.207  -0.017
 -0.151  -0.171  -0.064  -0.142  -0.043   0.125   0.160   0.050   0.136   0.037  -0.742   0.184  -0.057  -0.007   0.060   0.004
  0.094   0.068   0.055  -0.041   0.091  -0.115  -0.069  -0.068   0.037  -0.107   0.224  -0.057   0.053  -0.026  -0.008  -0.004
 -0.025  -0.053  -0.028   0.118  -0.097   0.024   0.070   0.028  -0.131   0.094   0.003  -0.007  -0.026   0.048  -0.025   0.001
 -0.054  -0.011  -0.021  -0.096   0.057   0.077   0.013   0.033   0.096  -0.072  -0.207   0.060  -0.008  -0.025   0.046   0.001
  0.001  -0.003   0.004   0.002   0.008   0.010   0.005   0.005  -0.002   0.008  -0.017   0.004  -0.004   0.001   0.001   0.001
  0.001  -0.010   0.005   0.002   0.007  -0.001  -0.006  -0.002   0.009  -0.006  -0.001   0.001   0.002  -0.003   0.001  -0.000
 -0.008   0.001  -0.003   0.010   0.006  -0.007  -0.001  -0.003  -0.007   0.005   0.017  -0.005   0.001   0.002  -0.004  -0.000


------------------------ aborting loop because EDIFF is reached ----------------------------------------


    FORLOC:  cpu time      0.0107: real time      0.0107
    FORHF :  cpu time      2.1375: real time      2.1398
    FORNL :  cpu time      0.0653: real time      0.0653
    FORCOR:  cpu time      2.6912: real time      2.6935
    OFIELD:  cpu time      0.0004: real time      0.0004
    FORVDW:  cpu time      0.0220: real time      0.0364

 VOLUME and BASIS-vectors are now :
 -----------------------------------------------------------------------------
  energy-cutoff  :      520.00
  volume of cell :     8000.00
      direct lattice vectors                 reciprocal lattice vectors
    20.000000000  0.000000000  0.000000000     0.050000000  0.000000000  0.000000000
     0.000000000 20.000000000  0.000000000     0.000000000  0.050000000  0.000000000
     0.000000000  0.000000000 20.000000000     0.000000000  0.000000000  0.050000000

  length of vectors
    20.000000000 20.000000000 20.000000000     0.050000000  0.050000000  0.050000000


 FORCES acting on ions:
    Electron-Ion                     Ewald-Force                    Non-Local-Force
 -----------------------------------------------------------------------------------------------
   -.532E+03 0.393E+03 0.143E+03   0.529E+03 -.388E+03 -.144E+03   0.363E+01 -.473E+01 0.523E+00
   0.362E+03 -.433E+03 0.345E+02   -.360E+03 0.430E+03 -.337E+02   -.222E+01 0.353E+01 -.860E+00
   0.538E+03 -.917E+02 -.333E+03   -.532E+03 0.908E+02 0.330E+03   -.593E+01 0.970E+00 0.360E+01
   0.218E+03 0.325E+03 -.409E+03   -.217E+03 -.322E+03 0.407E+03   -.991E+00 -.293E+01 0.293E+01
   -.161E+03 0.582E+03 -.317E+03   0.158E+03 -.576E+03 0.315E+03   0.262E+01 -.583E+01 0.240E+01
   -.646E+02 0.621E+01 0.315E+02   0.638E+02 -.606E+01 -.310E+02   0.775E+00 -.136E+00 -.476E+00
   -.419E+03 -.203E+03 0.491E+03   0.418E+03 0.200E+03 -.487E+03   0.204E+01 0.357E+01 -.434E+01
   0.583E+02 -.577E+03 0.359E+03   -.589E+02 0.572E+03 -.355E+03   0.495E+00 0.539E+01 -.414E+01
 -----------------------------------------------------------------------------------------------
   -.498E+00 0.176E+00 0.427E+00   0.114E-12 0.114E-12 -.114E-12   0.423E+00 -.154E+00 -.371E+00
 
 
 POSITION                                       TOTAL-FORCE (eV/Angst)
 -----------------------------------------------------------------------------------
     13.06583      8.45503      9.11973         0.296215     -0.234630     -0.064081
      8.63353     11.48879     10.37571        -0.153697      0.264156     -0.069741
      6.88138     10.66734     12.24676        -0.312890      0.054292      0.191230
      9.07057      9.19327     11.71938        -0.066121     -0.222682      0.209417
     11.27351      7.71594     11.13850         0.068222     -0.306637      0.187860
     10.88836      9.97718      9.76414        -0.000621     -0.002834      0.007193
     12.63446     10.71960      7.79559         0.222446      0.130172     -0.281301
     10.41033     12.27277      8.47846        -0.053554      0.318162     -0.180578
 -----------------------------------------------------------------------------------
    total drift:                                0.008084      0.000939     -0.002881


--------------------------------------------------------------------------------------------------------



  FREE ENERGIE OF THE ION-ELECTRON SYSTEM (eV)
  ---------------------------------------------------
  free  energy   TOTEN  =       -15.07336768 eV

  energy  without entropy=      -15.07336768  energy(sigma->0) =      -15.07336768
 


--------------------------------------------------------------------------------------------------------


    POTLOK:  cpu time      2.7497: real time      2.7750


--------------------------------------------------------------------------------------------------------


     LOOP+:  cpu time    215.5966: real time    216.2149
    4ORBIT:  cpu time      0.0000: real time      0.0000

 total amount of memory used by VASP MPI-rank0   255205. kBytes
=======================================================================

   base      :      30000. kBytes
   nonlr-proj:       1827. kBytes
   fftplans  :       7273. kBytes
   grid      :       5947. kBytes
   one-center:         15. kBytes
   HF        :         64. kBytes
   wavefun   :       2592. kBytes
   fock_wrk  :     207487. kBytes
 
  
  
 General timing and accounting informations for this job:
 ========================================================
  
                  Total CPU time used (sec):      224.642
                            User time (sec):      215.045
                          System time (sec):        9.597
                         Elapsed time (sec):      227.166
  
                   Maximum memory used (kb):     1075128.
                   Average memory used (kb):          N/A
  
                          Minor page faults:       126882
                          Major page faults:            0
                 Voluntary context switches:         5754
