 vasp.6.4.1 05Apr23 (build May 06 2023 19:47:20) complex                        
  
 executed on             LinuxIFC date 2023.07.04  01:01:58
 running  768 mpi-ranks, with    1 threads/rank, on   48 nodes
 distrk:  each k-point on  768 cores,    1 groups
 distr:  one band on NCORE=  16 cores,   48 groups


--------------------------------------------------------------------------------------------------------


 INCAR:
   SYSTEM = MgO-rocksalt
   ISMEAR = 0
   SIGMA = 0.05
   EDIFF = 1E-6
   ALGO = ALL
   ISTART = 0
   IBRION = -1
   NSW = 0
   ISYM = 2
   DIPOL = 0.5 0.5 0.5
   IDIPOL = 3
   LDIPOL = .TRUE.
   GGA = RE
   IVDW = 11
   ENCUT = 520
   PREC = Accurate
   LASPH = .TRUE.
   LREAL = Auto
   ISPIN = 1
   NELM = 200
   NELMIN = 8
   NCORE = 16
   KPAR = 1
   LWAVE = .FALSE.
   LCHARG = .FALSE.

 POTCAR:    PAW_PBE Ag 02Apr2005                  
 POTCAR:    PAW_PBE Ag 02Apr2005                  
   SHA256 =  6550cfa3543261e132c169e1b98a529204624d72be14e2da2e0242bcb74a174d Ag/POTCAR             
   COPYR  = (c) Copyright 02Apr2005 Georg Kresse                                                    
   COPYR  = This file is part of the software VASP. Any use, copying, and all other rights are regul
   COPYR  = If you do not have a valid VASP license, you may not use, copy or distribute this file. 
   VRHFIN =Ag : s1 d10                                                                              
   LEXCH  = PE                                                                                      
   EATOM  =  1037.2675 eV,   76.2370 Ry                                                             
                                                                                                    
   TITEL  = PAW_PBE Ag 02Apr2005                                                                    
   LULTRA =        F    use ultrasoft PP ?                                                          
   IUNSCR =        1    unscreen: 0-lin 1-nonlin 2-no                                               
   RPACOR =    2.000    partial core radius                                                         
   POMASS =  107.868; ZVAL   =   11.000    mass and valenz                                          
   RCORE  =    2.500    outmost cutoff radius                                                       
   RWIGS  =    2.840; RWIGS  =    1.503    wigner-seitz radius (au A)                               
   ENMAX  =  249.844; ENMIN  =  187.383 eV                                                          
   ICORE  =        3    local potential                                                             
   LCOR   =        T    correct aug charges                                                         
   LPAW   =        T    paw PP                                                                      
   EAUG   =  412.496                                                                                
   DEXC   =    0.000                                                                                
   RMAX   =    2.560    core radius for proj-oper                                                   
   RAUG   =    1.300    factor for augmentation sphere                                              
   RDEP   =    2.576    radius for radial grids                                                     
   RDEPT  =    2.072    core radius for aug-charge                                                  
                                                                                                    
   Atomic configuration                                                                             
   12 entries                                                                                       
     n  l   j            E        occ.                                                              
     1  0  0.50    -25324.9161   2.0000                                                             
     2  0  0.50     -3728.5341   2.0000                                                             
     2  1  1.50     -3344.0404   6.0000                                                             
     3  0  0.50      -683.5581   2.0000                                                             
     3  1  1.50      -557.3225   6.0000                                                             
     3  2  2.50      -358.3853  10.0000                                                             
     4  0  0.50       -95.0341   2.0000                                                             
     4  1  1.50       -58.5511   6.0000                                                             
     4  2  2.50        -7.4440  10.0000                                                             
     5  0  0.50        -4.4045   1.0000                                                             
     5  1  0.50        -1.3606   0.0000                                                             
     4  3  2.50        -1.3606   0.0000                                                             
   Description                                                                                      
     l       E           TYP  RCUT    TYP  RCUT                                                     
     2     -7.4439781     23  2.400                                                                 
     2     -8.8045607     23  2.400                                                                 
     0     -4.4044681     23  2.400                                                                 
     0      1.9520038     23  2.400                                                                 
     1     -1.3605826     23  2.500                                                                 
     1     27.2116520     23  2.500                                                                 
     3     -4.0817478     23  2.400                                                                 
  local pseudopotential read in
  partial core-charges read in
  partial kinetic energy density read in
  atomic valenz-charges read in
  non local Contribution for L=           2  read in
    real space projection operators read in
  non local Contribution for L=           2  read in
    real space projection operators read in
  non local Contribution for L=           0  read in
    real space projection operators read in
  non local Contribution for L=           0  read in
    real space projection operators read in
  non local Contribution for L=           1  read in
    real space projection operators read in
  non local Contribution for L=           1  read in
    real space projection operators read in
    PAW grid and wavefunctions read in
 
   number of l-projection  operators is LMAX  =           6
   number of lm-projection operators is LMMAX =          18
 
 -----------------------------------------------------------------------------
|                                                                             |
|               ----> ADVICE to this user running VASP <----                  |
|                                                                             |
|     You have a (more or less) 'small supercell' and for smaller cells       |
|     it is recommended to use the reciprocal-space projection scheme!        |
|     The real-space optimization is not efficient for small cells and it     |
|     is also less accurate ...                                               |
|     Therefore, set LREAL=.FALSE. in the INCAR file.                         |
|                                                                             |
 -----------------------------------------------------------------------------

 Optimization of the real space projectors (new method)

 maximal supplied QI-value         = 15.12
 optimisation between [QCUT,QGAM] = [ 11.64, 23.28] = [ 37.95,151.78] Ry 
 Optimized for a Real-space Cutoff    1.45 Angstroem

   l    n(q)    QCUT    max X(q) W(low)/X(q) W(high)/X(q)  e(spline) 
   2      9    11.641    53.897    0.22E-03    0.42E-04    0.28E-06
   2      9    11.641    52.416    0.23E-03    0.44E-04    0.29E-06
   0     10    11.641   122.045    0.51E-04    0.25E-04    0.16E-06
   0     10    11.641    73.629    0.49E-04    0.24E-04    0.16E-06
   1     10    11.641    15.255    0.99E-04    0.55E-04    0.11E-06
   1     10    11.641     9.562    0.81E-04    0.47E-04    0.95E-07
 -----------------------------------------------------------------------------
|                                                                             |
|               ----> ADVICE to this user running VASP <----                  |
|                                                                             |
|     You enforced a specific xc type in the INCAR file but a different       |
|     type was found in the POTCAR file.                                      |
|     I HOPE YOU KNOW WHAT YOU ARE DOING!                                     |
|                                                                             |
 -----------------------------------------------------------------------------

  PAW_PBE Ag 02Apr2005                  :
 energy of atom  1       EATOM=-1037.2675
 kinetic energy error for atom=    0.0047 (will be added to EATOM!!)
 
 
 POSCAR: Ag
  positions in direct lattice
  No initial velocities read in
 exchange correlation table for  LEXCH =       40
   RHO(1)=    0.500       N(1)  =     2000
   RHO(2)=  100.500       N(2)  =     4000
 


--------------------------------------------------------------------------------------------------------


 ion  position               nearest neighbor table
   1  0.543  0.457  0.625-   2 2.59
   2  0.457  0.543  0.625-   1 2.59
 
  LATTYP: Found a simple tetragonal cell.
 ALAT       =    21.1388521970
 C/A-ratio  =     1.0461251639
  
  Lattice vectors:
  
 A1 = (  21.1388521970,   0.0000000000,   0.0000000000)
 A2 = (   0.0000000000,  21.1388521970,   0.0000000000)
 A3 = (   0.0000000000,   0.0000000000,  22.1138852197)


Analysis of symmetry for initial positions (statically):
=====================================================================
 Subroutine PRICEL returns:
 Original cell was already a primitive cell.
 

 Routine SETGRP: Setting up the symmetry group for a 
 simple tetragonal supercell.


 Subroutine GETGRP returns: Found  8 space group operations
 (whereof  4 operations were pure point group operations)
 out of a pool of 16 trial point group operations.


The static configuration has the point symmetry C_2v.
 The point group associated with its full space group is D_2h.


Analysis of symmetry for dynamics (positions and initial velocities):
=====================================================================
 Subroutine PRICEL returns:
 Original cell was already a primitive cell.
 

 Routine SETGRP: Setting up the symmetry group for a 
 simple tetragonal supercell.


 Subroutine GETGRP returns: Found  8 space group operations
 (whereof  4 operations were pure point group operations)
 out of a pool of 16 trial point group operations.


The dynamic configuration has the point symmetry C_2v.
 The point group associated with its full space group is D_2h.


 Subroutine INISYM returns: Found  8 space group operations
 (whereof  4 operations are pure point group operations),
 and found     1 'primitive' translations


----------------------------------------------------------------------------------------

                                     Primitive cell                                     

  volume of cell :    9881.6133

  direct lattice vectors                    reciprocal lattice vectors
    21.138852197  0.000000000  0.000000000     0.047306258  0.000000000  0.000000000
     0.000000000 21.138852197  0.000000000     0.000000000  0.047306258  0.000000000
     0.000000000  0.000000000 22.113885220     0.000000000  0.000000000  0.045220457

  length of vectors
    21.138852197 21.138852197 22.113885220     0.047306258  0.047306258  0.045220457

  position of ions in fractional coordinates (direct lattice)
     0.543282734  0.456717266  0.625334806
     0.456717266  0.543282734  0.625334806

  ion indices of the primitive-cell ions
   primitive index   ion index
                 1           1
                 2           2

----------------------------------------------------------------------------------------

 
 
 KPOINTS: KPOINTS created by Atomic Simulation Env

Automatic generation of k-mesh.
 Grid dimensions read from file:
 generate k-points for:    1    1    1

 Generating k-lattice:

  Cartesian coordinates                     Fractional coordinates (reciprocal lattice)
     0.047306258  0.000000000  0.000000000     1.000000000  0.000000000  0.000000000
     0.000000000  0.047306258  0.000000000     0.000000000  1.000000000  0.000000000
     0.000000000  0.000000000  0.045220457     0.000000000  0.000000000  1.000000000

  Length of vectors
     0.047306258  0.047306258  0.045220457

  Shift w.r.t. Gamma in fractional coordinates (k-lattice)
     0.000000000  0.000000000  0.000000000

 
 Subroutine IBZKPT returns following result:
 ===========================================
 
 Found      1 irreducible k-points:
 
 Following reciprocal coordinates:
            Coordinates               Weight
  0.000000  0.000000  0.000000      1.000000
 
 Following cartesian coordinates:
            Coordinates               Weight
  0.000000  0.000000  0.000000      1.000000
 


--------------------------------------------------------------------------------------------------------




 Dimension of arrays:
   k-points           NKPTS =      1   k-points in BZ     NKDIM =      1   number of bands    NBANDS=     48
   number of dos      NEDOS =    301   number of ions     NIONS =      2
   non local maximal  LDIM  =      6   non local SUM 2l+1 LMDIM =     18
   total plane-waves  NPLWV = ******
   max r-space proj   IRMAX =   5559   max aug-charges    IRDMAX=  21597
   dimension x,y,z NGX =   160 NGY =  160 NGZ =  168
   dimension x,y,z NGXF=   320 NGYF=  320 NGZF=  336
   support grid    NGXF=   320 NGYF=  320 NGZF=  336
   ions per type =               2
   NGX,Y,Z   is equivalent  to a cutoff of  12.58, 12.58, 12.63 a.u.
   NGXF,Y,Z  is equivalent  to a cutoff of  25.17, 25.17, 25.26 a.u.

 SYSTEM =  MgO-rocksalt                            
 POSCAR =  Ag                                      

 Startparameter for this run:
   NWRITE =      2    write-flag & timer
   PREC   = accura    normal or accurate (medium, high low for compatibility)
   ISTART =      0    job   : 0-new  1-cont  2-samecut
   ICHARG =      2    charge: 1-file 2-atom 10-const
   ISPIN  =      1    spin polarized calculation?
   LNONCOLLINEAR =      F non collinear calculations
   LSORBIT =      F    spin-orbit coupling
   INIWAV =      1    electr: 0-lowe 1-rand  2-diag
   LASPH  =      T    aspherical Exc in radial PAW
 Electronic Relaxation 1
   ENCUT  =  520.0 eV  38.22 Ry    6.18 a.u.  39.30 39.30 41.12*2*pi/ulx,y,z
   ENINI  =  520.0     initial cutoff
   ENAUG  =  412.5 eV  augmentation charge cutoff
   NELM   =    200;   NELMIN=  8; NELMDL= -5     # of ELM steps 
   EDIFF  = 0.1E-05   stopping-criterion for ELM
   LREAL  =      T    real-space projection
   NLSPLINE    = F    spline interpolate recip. space projectors
   LCOMPAT=      F    compatible to vasp.4.4
   GGA_COMPAT  = T    GGA compatible to vasp.4.4-vasp.4.6
   LMAXPAW     = -100 max onsite density
   LMAXMIX     =    2 max onsite mixed and CHGCAR
   VOSKOWN=      0    Vosko Wilk Nusair interpolation
   ROPT   =   -0.00025
 Ionic relaxation
   EDIFFG = 0.1E-04   stopping-criterion for IOM
   NSW    =      0    number of steps for IOM
   NBLOCK =      1;   KBLOCK =      1    inner block; outer block 
   IBRION =     -1    ionic relax: 0-MD 1-quasi-New 2-CG
   NFREE  =      0    steps in history (QN), initial steepest desc. (CG)
   ISIF   =      2    stress and relaxation
   IWAVPR =     10    prediction:  0-non 1-charg 2-wave 3-comb
   ISYM   =      2    0-nonsym 1-usesym 2-fastsym
   LCORR  =      T    Harris-Foulkes like correction to forces

   POTIM  = 0.5000    time-step for ionic-motion
   TEIN   =    0.0    initial temperature
   TEBEG  =    0.0;   TEEND  =   0.0 temperature during run
   SMASS  =  -3.00    Nose mass-parameter (am)
   estimated Nose-frequenzy (Omega)   =  0.10E-29 period in steps = 0.13E+47 mass=  -0.102E-25a.u.
   SCALEE = 1.0000    scale energy and forces
   NPACO  =    256;   APACO  = 10.0  distance and # of slots for P.C.
   PSTRESS=    0.0 pullay stress

  Mass of Ions in am
   POMASS = 107.87
  Ionic Valenz
   ZVAL   =  11.00
  Atomic Wigner-Seitz radii
   RWIGS  =  -1.00
  virtual crystal weights 
   VCA    =   1.00
   NELECT =      22.0000    total number of electrons
   NUPDOWN=      -1.0000    fix difference up-down

 DOS related values:
   EMIN   =  10.00;   EMAX   =-10.00  energy-range for DOS
   EFERMI =   0.00;   METHOD = LEGACY      
   ISMEAR =     0;   SIGMA  =   0.05  broadening in eV -4-tet -1-fermi 0-gaus

 Electronic relaxation 2 (details)
   IALGO  =     58    algorithm
   LDIAG  =      T    sub-space diagonalisation (order eigenvalues)
   LSUBROT=      F    optimize rotation matrix (better conditioning)
   TURBO    =      0    0=normal 1=particle mesh
   IRESTART =      0    0=no restart 2=restart with 2 vectors
   NREBOOT  =      0    no. of reboots
   NMIN     =      0    reboot dimension
   EREF     =   0.00    reference energy to select bands
   IMIX   =      4    mixing-type and parameters
     AMIX     =   0.40;   BMIX     =  1.00
     AMIX_MAG =   1.60;   BMIX_MAG =  1.00
     AMIN     =   0.10
     WC   =   100.;   INIMIX=   1;  MIXPRE=   1;  MAXMIX= -45

 Intra band minimization:
   WEIMIN = 0.0000     energy-eigenvalue tresh-hold
   EBREAK =  0.52E-08  absolut break condition
   DEPER  =   0.30     relativ break condition  

   TIME   =   0.40     timestep for ELM

  volume/ion in A,a.u.               =    4940.81     33342.21
  Fermi-wavevector in a.u.,A,eV,Ry     =   0.213767  0.403960  0.621734  0.045696
  Thomas-Fermi vector in A             =   0.985879
 
 Write flags
   LWAVE        =      F    write WAVECAR
   LDOWNSAMPLE  =      F    k-point downsampling of WAVECAR
   LCHARG       =      F    write CHGCAR
   LVTOT        =      F    write LOCPOT, total local potential
   LVHAR        =      F    write LOCPOT, Hartree potential only
   LELF         =      F    write electronic localiz. function (ELF)
   LORBIT       =      0    0 simple, 1 ext, 2 COOP (PROOUT), +10 PAW based schemes


 Dipole corrections
   LMONO  =      F    monopole corrections only (constant potential shift)
   LDIPOL =      T    correct potential (dipole corrections)
   IDIPOL =      3    1-x, 2-y, 3-z, 4-all directions 
   EPSILON=  1.0000000 bulk dielectric constant

 Exchange correlation treatment:
   GGA     =    RE    GGA type
   LEXCH   =    40    internal setting for exchange type
   LIBXC   =     F    Libxc                    
   VOSKOWN =     0    Vosko Wilk Nusair interpolation
   LHFCALC =     F    Hartree Fock is set to
   LHFONE  =     F    Hartree Fock one center treatment
   AEXX    =    0.0000 exact exchange contribution

 Linear response parameters
   LEPSILON=     F    determine dielectric tensor
   LRPA    =     F    only Hartree local field effects (RPA)
   LNABLA  =     F    use nabla operator in PAW spheres
   LVEL    =     F    velocity operator in full k-point grid
   CSHIFT  =0.1000    complex shift for real part using Kramers Kronig
   OMEGAMAX=  -1.0    maximum frequency
   DEG_THRESHOLD= 0.2000000E-02 threshold for treating states as degnerate
   RTIME   =   -0.100 relaxation time in fs
  (WPLASMAI=    0.000 imaginary part of plasma frequency in eV, 0.658/RTIME)
   DFIELD  = 0.0000000 0.0000000 0.0000000 field for delta impulse in time
 
  Optional k-point grid parameters
   LKPOINTS_OPT  =     F    use optional k-point grid
   KPOINTS_OPT_MODE=     1    mode for optional k-point grid
 
 Orbital magnetization related:
   ORBITALMAG=     F  switch on orbital magnetization
   LCHIMAG   =     F  perturbation theory with respect to B field
   DQ        =  0.001000  dq finite difference perturbation B field
   LLRAUG    =     F  two centre corrections for induced B field
   LBONE     =     F  B-component reconstruction in AE one-centre
   LVGVCALC  =     T  calculate vGv susceptibility
   LVGVAPPL  =     F  apply vGv susceptibility instead of pGv for G=0

 Random number generation:
   RANDOM_GENERATOR = DEFAULT
   PCG_SEED         = not used


--------------------------------------------------------------------------------------------------------


 Static calculation
 charge density and potential will be updated during run
 non-spin polarized calculation
 Conjugate gradient for all bands (Freysoldt, et al. PRB 79, 241103 (2009))
 preconditioned conjugated gradient                                        
 perform sub-space diagonalisation
    before iterative eigenvector-optimisation
 modified Broyden-mixing scheme, WC =      100.0
 initial mixing is a Kerker type mixing with AMIX =  0.4000 and BMIX =      1.0000
 Hartree-type preconditioning will be used
 using additional bands           37
 real space projection scheme for non local part
 use partial core corrections
 no Harris-corrections to forces 
 use gradient corrections 
 use of overlap-Matrix (Vanderbilt PP)
 Gauss-broadening in eV      SIGMA  =   0.05


--------------------------------------------------------------------------------------------------------


  energy-cutoff  :      520.00
  volume of cell :     9881.61
      direct lattice vectors                 reciprocal lattice vectors
    21.138852197  0.000000000  0.000000000     0.047306258  0.000000000  0.000000000
     0.000000000 21.138852197  0.000000000     0.000000000  0.047306258  0.000000000
     0.000000000  0.000000000 22.113885220     0.000000000  0.000000000  0.045220457

  length of vectors
    21.138852197 21.138852197 22.113885220     0.047306258  0.047306258  0.045220457


 
 k-points in units of 2pi/SCALE and weight: KPOINTS created by Atomic Simulation Env
   0.00000000  0.00000000  0.00000000       1.000
 
 k-points in reciprocal lattice and weights: KPOINTS created by Atomic Simulation Env
   0.00000000  0.00000000  0.00000000       1.000
 
 position of ions in fractional coordinates (direct lattice) 
   0.54328273  0.45671727  0.62533481
   0.45671727  0.54328273  0.62533481
 
 position of ions in cartesian coordinates  (Angst):
  11.48437342  9.65447878 13.82858213
   9.65447878 11.48437342 13.82858213
 


--------------------------------------------------------------------------------------------------------


 k-point   1 :   0.0000 0.0000 0.0000  plane waves:  265979

 maximum and minimum number of plane-waves per node :     16635    16606

 maximum number of plane-waves:    265979
 maximum index in each direction: 
   IXMAX=   39   IYMAX=   39   IZMAX=   41
   IXMIN=  -39   IYMIN=  -39   IZMIN=  -41


 real space projection operators:
  total allocation   :       1504.97 KBytes
  max/ min on nodes  :        102.66         88.45


 parallel 3D FFT for wavefunctions:
    minimum data exchange during FFTs selected (reduces bandwidth)
 parallel 3D FFT for charge:
    minimum data exchange during FFTs selected (reduces bandwidth)


 total amount of memory used by VASP MPI-rank0    58444. kBytes
=======================================================================

   base      :      30000. kBytes
   nonlr-proj:        301. kBytes
   fftplans  :      11368. kBytes
   grid      :      15959. kBytes
   one-center:         15. kBytes
   wavefun   :        801. kBytes
 
     INWAV:  cpu time      0.0001: real time      0.0001
 Broyden mixing: mesh for mixing (old mesh)
   NGX = 79   NGY = 79   NGZ = 83
  (NGX  =320   NGY  =320   NGZ  =336)
  gives a total of 518003 points

 initial charge density was supplied:
 charge density of overlapping atoms calculated
 number of electron      22.0000000 magnetization 
 keeping initial charge density in first step


--------------------------------------------------------------------------------------------------------


 Maximum index for non-local projection operator          329
 Maximum index for augmentation-charges            0 (set IRDMAX)


--------------------------------------------------------------------------------------------------------


 First call to EWALD:  gamma=   0.083
 Maximum number of real-space cells 3x 3x 3
 Maximum number of reciprocal cells 3x 3x 3

    FEWALD:  cpu time      0.0122: real time      0.0131


--------------------------------------- Ionic step        1  -------------------------------------------




--------------------------------------- Iteration      1(   1)  ---------------------------------------


    POTLOK:  cpu time      0.3406: real time      0.3497
    SETDIJ:  cpu time      0.7415: real time      0.7427
    TRIAL :  cpu time      0.2737: real time      0.3354
    CORREC:  cpu time      0.0125: real time      0.0125
    --------------------------------------------
      LOOP:  cpu time      1.3713: real time      1.4440

 eigenvalue-minimisations  :    96
 total energy-change (2. order) : 0.1586737E+03  (-0.3129192E+03)
 number of electron      22.0000000 magnetization 
 augmentation part       22.0000000 magnetization 

 DIPCOR: dipole corrections for dipol
 direction  3 min pos     1,
 dipolmoment           0.000000      0.000000     -0.000013 electrons x Angstroem
 Tr[quadrupol]     -4099.495593

 energy correction for charged system         0.000000 eV
 dipol+quadrupol energy correction           -0.000000 eV
 added-field ion interaction          0.000016 eV  (added to PSCEN)


 Free energy of the ion-electron system (eV)
  ---------------------------------------------------
  alpha Z        PSCENC =         0.34432352
  Ewald energy   TEWEN  =       215.47733292
  -Hartree energ DENC   =     -2197.73572706
  -exchange      EXHF   =         0.00000000
  -V(xc)+E(xc)   XCENC  =       -25.01165082
  PAW double counting   =      2008.24765832    -1914.15143096
  entropy T*S    EENTRO =        -0.02307837
  eigenvalues    EBANDS =        -1.85669977
  atomic energy  EATOM  =      2073.38295078
  ---------------------------------------------------
  free energy    TOTEN  =       158.67367856 eV

  energy without entropy =      158.69675693  energy(sigma->0) =      158.68521775


--------------------------------------------------------------------------------------------------------




--------------------------------------- Iteration      1(   2)  ---------------------------------------


    TRIAL :  cpu time      0.4383: real time      0.4388
    CORREC:  cpu time      0.0011: real time      0.0011
    --------------------------------------------
      LOOP:  cpu time      0.4450: real time      0.4642

 eigenvalue-minimisations  :   192
 total energy-change (2. order) :-0.1395299E+03  (-0.1392901E+03)
 number of electron      22.0000000 magnetization 
 augmentation part       22.0000000 magnetization 

 DIPCOR: dipole corrections for dipol
 direction  3 min pos     1,
 dipolmoment           0.000000      0.000000     -0.000013 electrons x Angstroem
 Tr[quadrupol]     -4099.495593

 energy correction for charged system         0.000000 eV
 dipol+quadrupol energy correction           -0.000000 eV
 added-field ion interaction          0.000016 eV  (added to PSCEN)


 Free energy of the ion-electron system (eV)
  ---------------------------------------------------
  alpha Z        PSCENC =         0.34432352
  Ewald energy   TEWEN  =       215.47733292
  -Hartree energ DENC   =     -2197.73572706
  -exchange      EXHF   =         0.00000000
  -V(xc)+E(xc)   XCENC  =       -25.01165082
  PAW double counting   =      2008.24765832    -1914.15143096
  entropy T*S    EENTRO =        -0.00000000
  eigenvalues    EBANDS =      -141.40965224
  atomic energy  EATOM  =      2073.38295078
  ---------------------------------------------------
  free energy    TOTEN  =        19.14380446 eV

  energy without entropy =       19.14380446  energy(sigma->0) =       19.14380446


--------------------------------------------------------------------------------------------------------




--------------------------------------- Iteration      1(   3)  ---------------------------------------


    TRIAL :  cpu time      0.1787: real time      0.1794
    CORREC:  cpu time      0.0010: real time      0.0010
    --------------------------------------------
      LOOP:  cpu time      0.1833: real time      0.1923

 eigenvalue-minimisations  :    96
 total energy-change (2. order) :-0.2121093E+02  (-0.2121093E+02)
 number of electron      22.0000000 magnetization 
 augmentation part       22.0000000 magnetization 

 DIPCOR: dipole corrections for dipol
 direction  3 min pos     1,
 dipolmoment           0.000000      0.000000     -0.000013 electrons x Angstroem
 Tr[quadrupol]     -4099.495593

 energy correction for charged system         0.000000 eV
 dipol+quadrupol energy correction           -0.000000 eV
 added-field ion interaction          0.000016 eV  (added to PSCEN)


 Free energy of the ion-electron system (eV)
  ---------------------------------------------------
  alpha Z        PSCENC =         0.34432352
  Ewald energy   TEWEN  =       215.47733292
  -Hartree energ DENC   =     -2197.73572706
  -exchange      EXHF   =         0.00000000
  -V(xc)+E(xc)   XCENC  =       -25.01165082
  PAW double counting   =      2008.24765832    -1914.15143096
  entropy T*S    EENTRO =        -0.00000000
  eigenvalues    EBANDS =      -162.62058404
  atomic energy  EATOM  =      2073.38295078
  ---------------------------------------------------
  free energy    TOTEN  =        -2.06712734 eV

  energy without entropy =       -2.06712734  energy(sigma->0) =       -2.06712734


--------------------------------------------------------------------------------------------------------




--------------------------------------- Iteration      1(   4)  ---------------------------------------


    TRIAL :  cpu time      0.1780: real time      0.1798
    CORREC:  cpu time      0.0010: real time      0.0010
    --------------------------------------------
      LOOP:  cpu time      0.1833: real time      0.1925

 eigenvalue-minimisations  :    96
 total energy-change (2. order) :-0.1442381E+00  (-0.1442381E+00)
 number of electron      22.0000000 magnetization 
 augmentation part       22.0000000 magnetization 

 DIPCOR: dipole corrections for dipol
 direction  3 min pos     1,
 dipolmoment           0.000000      0.000000     -0.000013 electrons x Angstroem
 Tr[quadrupol]     -4099.495593

 energy correction for charged system         0.000000 eV
 dipol+quadrupol energy correction           -0.000000 eV
 added-field ion interaction          0.000016 eV  (added to PSCEN)


 Free energy of the ion-electron system (eV)
  ---------------------------------------------------
  alpha Z        PSCENC =         0.34432352
  Ewald energy   TEWEN  =       215.47733292
  -Hartree energ DENC   =     -2197.73572706
  -exchange      EXHF   =         0.00000000
  -V(xc)+E(xc)   XCENC  =       -25.01165082
  PAW double counting   =      2008.24765832    -1914.15143096
  entropy T*S    EENTRO =        -0.00000000
  eigenvalues    EBANDS =      -162.76482211
  atomic energy  EATOM  =      2073.38295078
  ---------------------------------------------------
  free energy    TOTEN  =        -2.21136541 eV

  energy without entropy =       -2.21136541  energy(sigma->0) =       -2.21136541


--------------------------------------------------------------------------------------------------------




--------------------------------------- Iteration      1(   5)  ---------------------------------------


    TRIAL :  cpu time      0.4109: real time      0.4115
    CORREC:  cpu time      0.0011: real time      0.0011
    CHARGE:  cpu time      2.5980: real time      2.5996
    --------------------------------------------
      LOOP:  cpu time      3.0140: real time      3.0241

 eigenvalue-minimisations  :   192
 total energy-change (2. order) :-0.1759840E-02  (-0.1759840E-02)
 number of electron      22.0000006 magnetization 
 augmentation part       10.6572575 magnetization 

 DIPCOR: dipole corrections for dipol
 direction  3 min pos     1,
 dipolmoment           0.000000      0.000000     -0.000013 electrons x Angstroem
 Tr[quadrupol]     -4099.495593

 energy correction for charged system         0.000000 eV
 dipol+quadrupol energy correction           -0.000000 eV
 added-field ion interaction          0.000016 eV  (added to PSCEN)


 Free energy of the ion-electron system (eV)
  ---------------------------------------------------
  alpha Z        PSCENC =         0.34432352
  Ewald energy   TEWEN  =       215.47733292
  -Hartree energ DENC   =     -2197.73572706
  -exchange      EXHF   =         0.00000000
  -V(xc)+E(xc)   XCENC  =       -25.01165082
  PAW double counting   =      2008.24765832    -1914.15143096
  entropy T*S    EENTRO =        -0.00000000
  eigenvalues    EBANDS =      -162.76658195
  atomic energy  EATOM  =      2073.38295078
  ---------------------------------------------------
  free energy    TOTEN  =        -2.21312525 eV

  energy without entropy =       -2.21312525  energy(sigma->0) =       -2.21312525


--------------------------------------------------------------------------------------------------------




--------------------------------------- Iteration      1(   6)  ---------------------------------------


    POTLOK:  cpu time      0.2613: real time      0.2610
    SETDIJ:  cpu time      0.7332: real time      0.7339
    TRIAL :  cpu time      0.4528: real time      0.5237
    CORREC:  cpu time      3.8885: real time      3.8909
    CHARGE:  cpu time      2.6093: real time      2.6100
    --------------------------------------------
      LOOP:  cpu time      7.9603: real time      8.0430

 eigenvalue-minimisations  :     0
 total energy-change (2. order) : 0.5133301E+00  (-0.2507830E+00)
 number of electron      22.0000006 magnetization 
 augmentation part       10.6665607 magnetization 

 DIPCOR: dipole corrections for dipol
 direction  3 min pos     1,
 dipolmoment           0.000000      0.000000     -0.000162 electrons x Angstroem
 Tr[quadrupol]     -4099.516989

 energy correction for charged system         0.000000 eV
 dipol+quadrupol energy correction           -0.000000 eV
 added-field ion interaction          0.000196 eV  (added to PSCEN)


 Free energy of the ion-electron system (eV)
  ---------------------------------------------------
  alpha Z        PSCENC =         0.34430635
  Ewald energy   TEWEN  =       215.47733292
  -Hartree energ DENC   =     -2214.61253408
  -exchange      EXHF   =         0.00000000
  -V(xc)+E(xc)   XCENC  =       -24.77662589
  PAW double counting   =      2110.96545940    -2018.39355600
  entropy T*S    EENTRO =        -0.00000000
  eigenvalues    EBANDS =      -144.08712864
  atomic energy  EATOM  =      2073.38295078
  ---------------------------------------------------
  free energy    TOTEN  =        -1.69979516 eV

  energy without entropy =       -1.69979516  energy(sigma->0) =       -1.69979516


--------------------------------------------------------------------------------------------------------




--------------------------------------- Iteration      1(   7)  ---------------------------------------


    POTLOK:  cpu time      0.3401: real time      0.3405
    SETDIJ:  cpu time      1.0362: real time      1.0368
    TRIAL :  cpu time      0.2486: real time      0.2485
    CORREC:  cpu time      4.2542: real time      4.2563
    CHARGE:  cpu time      2.6420: real time      2.6433
    --------------------------------------------
      LOOP:  cpu time      8.5379: real time      8.5424

 eigenvalue-minimisations  :     0
 total energy-change (2. order) :-0.2506575E+00  (-0.2672445E-01)
 number of electron      22.0000006 magnetization 
 augmentation part       10.6978012 magnetization 

 DIPCOR: dipole corrections for dipol
 direction  3 min pos     1,
 dipolmoment           0.000000      0.000000     -0.000148 electrons x Angstroem
 Tr[quadrupol]     -4099.528920

 energy correction for charged system         0.000000 eV
 dipol+quadrupol energy correction           -0.000000 eV
 added-field ion interaction          0.000178 eV  (added to PSCEN)


 Free energy of the ion-electron system (eV)
  ---------------------------------------------------
  alpha Z        PSCENC =         0.34457307
  Ewald energy   TEWEN  =       215.47733292
  -Hartree energ DENC   =     -2204.68134763
  -exchange      EXHF   =         0.00000000
  -V(xc)+E(xc)   XCENC  =       -24.94909489
  PAW double counting   =      2098.05571533    -2005.31740820
  entropy T*S    EENTRO =        -0.00000000
  eigenvalues    EBANDS =      -154.26317403
  atomic energy  EATOM  =      2073.38295078
  ---------------------------------------------------
  free energy    TOTEN  =        -1.95045265 eV

  energy without entropy =       -1.95045265  energy(sigma->0) =       -1.95045265


--------------------------------------------------------------------------------------------------------




--------------------------------------- Iteration      1(   8)  ---------------------------------------


    POTLOK:  cpu time      0.3519: real time      0.3517
    SETDIJ:  cpu time      1.0370: real time      1.0376
    TRIAL :  cpu time      0.2636: real time      0.2643
    CORREC:  cpu time      4.2453: real time      4.2463
    CHARGE:  cpu time      2.6396: real time      2.6414
    --------------------------------------------
      LOOP:  cpu time      8.5564: real time      8.5689

 eigenvalue-minimisations  :     0
 total energy-change (2. order) :-0.2680473E-01  (-0.8886470E-02)
 number of electron      22.0000006 magnetization 
 augmentation part       10.6745405 magnetization 

 DIPCOR: dipole corrections for dipol
 direction  3 min pos     1,
 dipolmoment           0.000000      0.000000     -0.000035 electrons x Angstroem
 Tr[quadrupol]     -4099.524311

 energy correction for charged system         0.000000 eV
 dipol+quadrupol energy correction           -0.000000 eV
 added-field ion interaction          0.000043 eV  (added to PSCEN)


 Free energy of the ion-electron system (eV)
  ---------------------------------------------------
  alpha Z        PSCENC =         0.34442699
  Ewald energy   TEWEN  =       215.47733292
  -Hartree energ DENC   =     -2208.51596629
  -exchange      EXHF   =         0.00000000
  -V(xc)+E(xc)   XCENC  =       -24.82596219
  PAW double counting   =      2100.59556777    -2007.89837873
  entropy T*S    EENTRO =        -0.00000000
  eigenvalues    EBANDS =      -150.53722863
  atomic energy  EATOM  =      2073.38295078
  ---------------------------------------------------
  free energy    TOTEN  =        -1.97725738 eV

  energy without entropy =       -1.97725738  energy(sigma->0) =       -1.97725738


--------------------------------------------------------------------------------------------------------




--------------------------------------- Iteration      1(   9)  ---------------------------------------


    POTLOK:  cpu time      0.3472: real time      0.3474
    SETDIJ:  cpu time      1.0358: real time      1.0365
    TRIAL :  cpu time      0.2754: real time      0.2754
    CORREC:  cpu time      4.4116: real time      4.4144
    CHARGE:  cpu time      2.7133: real time      2.7151
    --------------------------------------------
      LOOP:  cpu time      8.8098: real time      8.8157

 eigenvalue-minimisations  :     0
 total energy-change (2. order) :-0.8877795E-02  (-0.3113927E-02)
 number of electron      22.0000006 magnetization 
 augmentation part       10.6817662 magnetization 

 DIPCOR: dipole corrections for dipol
 direction  3 min pos     1,
 dipolmoment           0.000000      0.000000     -0.000006 electrons x Angstroem
 Tr[quadrupol]     -4099.524104

 energy correction for charged system         0.000000 eV
 dipol+quadrupol energy correction           -0.000000 eV
 added-field ion interaction          0.000007 eV  (added to PSCEN)


 Free energy of the ion-electron system (eV)
  ---------------------------------------------------
  alpha Z        PSCENC =         0.34433824
  Ewald energy   TEWEN  =       215.47733292
  -Hartree energ DENC   =     -2204.44488791
  -exchange      EXHF   =         0.00000000
  -V(xc)+E(xc)   XCENC  =       -24.93964083
  PAW double counting   =      2096.17781538    -2003.39904272
  entropy T*S    EENTRO =        -0.00000000
  eigenvalues    EBANDS =      -154.58500104
  atomic energy  EATOM  =      2073.38295078
  ---------------------------------------------------
  free energy    TOTEN  =        -1.98613517 eV

  energy without entropy =       -1.98613517  energy(sigma->0) =       -1.98613517


--------------------------------------------------------------------------------------------------------




--------------------------------------- Iteration      1(  10)  ---------------------------------------


    POTLOK:  cpu time      0.3099: real time      0.3103
    SETDIJ:  cpu time      1.0339: real time      1.0346
    TRIAL :  cpu time      0.2888: real time      0.2887
    CORREC:  cpu time      4.2424: real time      4.2456
    CHARGE:  cpu time      2.6063: real time      2.6080
    --------------------------------------------
      LOOP:  cpu time      8.5003: real time      8.5149

 eigenvalue-minimisations  :     0
 total energy-change (2. order) :-0.3100517E-02  (-0.5800868E-03)
 number of electron      22.0000006 magnetization 
 augmentation part       10.6815410 magnetization 

 DIPCOR: dipole corrections for dipol
 direction  3 min pos     1,
 dipolmoment           0.000000      0.000000      0.000000 electrons x Angstroem
 Tr[quadrupol]     -4099.527417

 energy correction for charged system         0.000000 eV
 dipol+quadrupol energy correction           -0.000000 eV
 added-field ion interaction         -0.000001 eV  (added to PSCEN)


 Free energy of the ion-electron system (eV)
  ---------------------------------------------------
  alpha Z        PSCENC =         0.34430762
  Ewald energy   TEWEN  =       215.47733292
  -Hartree energ DENC   =     -2205.12942206
  -exchange      EXHF   =         0.00000000
  -V(xc)+E(xc)   XCENC  =       -24.91922809
  PAW double counting   =      2096.97927802    -2004.19169340
  entropy T*S    EENTRO =        -0.00000000
  eigenvalues    EBANDS =      -153.93276149
  atomic energy  EATOM  =      2073.38295078
  ---------------------------------------------------
  free energy    TOTEN  =        -1.98923569 eV

  energy without entropy =       -1.98923569  energy(sigma->0) =       -1.98923569


--------------------------------------------------------------------------------------------------------




--------------------------------------- Iteration      1(  11)  ---------------------------------------


    POTLOK:  cpu time      0.3069: real time      0.3064
    SETDIJ:  cpu time      1.0350: real time      1.0359
    TRIAL :  cpu time      0.2431: real time      0.2430
    CORREC:  cpu time      4.1326: real time      4.1355
    CHARGE:  cpu time      2.5963: real time      2.5979
    --------------------------------------------
      LOOP:  cpu time      8.3307: real time      8.3358

 eigenvalue-minimisations  :     0
 total energy-change (2. order) :-0.5806969E-03  (-0.9112319E-04)
 number of electron      22.0000006 magnetization 
 augmentation part       10.6812662 magnetization 

 DIPCOR: dipole corrections for dipol
 direction  3 min pos     1,
 dipolmoment           0.000000      0.000000      0.000001 electrons x Angstroem
 Tr[quadrupol]     -4099.525964

 energy correction for charged system         0.000000 eV
 dipol+quadrupol energy correction           -0.000000 eV
 added-field ion interaction         -0.000001 eV  (added to PSCEN)


 Free energy of the ion-electron system (eV)
  ---------------------------------------------------
  alpha Z        PSCENC =         0.34430690
  Ewald energy   TEWEN  =       215.47733292
  -Hartree energ DENC   =     -2204.94945862
  -exchange      EXHF   =         0.00000000
  -V(xc)+E(xc)   XCENC  =       -24.92424871
  PAW double counting   =      2096.52836047    -2003.73250477
  entropy T*S    EENTRO =        -0.00000000
  eigenvalues    EBANDS =      -154.11655538
  atomic energy  EATOM  =      2073.38295078
  ---------------------------------------------------
  free energy    TOTEN  =        -1.98981639 eV

  energy without entropy =       -1.98981639  energy(sigma->0) =       -1.98981639


--------------------------------------------------------------------------------------------------------




--------------------------------------- Iteration      1(  12)  ---------------------------------------


    POTLOK:  cpu time      0.3058: real time      0.3057
    SETDIJ:  cpu time      1.0373: real time      1.0378
    TRIAL :  cpu time      0.2369: real time      0.2377
    CORREC:  cpu time      4.1304: real time      4.1327
    CHARGE:  cpu time      2.5960: real time      2.5980
    --------------------------------------------
      LOOP:  cpu time      8.3226: real time      8.3285

 eigenvalue-minimisations  :     0
 total energy-change (2. order) :-0.9171478E-04  (-0.1314216E-04)
 number of electron      22.0000006 magnetization 
 augmentation part       10.6818741 magnetization 

 DIPCOR: dipole corrections for dipol
 direction  3 min pos     1,
 dipolmoment           0.000000      0.000000      0.000001 electrons x Angstroem
 Tr[quadrupol]     -4099.525862

 energy correction for charged system         0.000000 eV
 dipol+quadrupol energy correction           -0.000000 eV
 added-field ion interaction         -0.000001 eV  (added to PSCEN)


 Free energy of the ion-electron system (eV)
  ---------------------------------------------------
  alpha Z        PSCENC =         0.34430670
  Ewald energy   TEWEN  =       215.47733292
  -Hartree energ DENC   =     -2204.87296960
  -exchange      EXHF   =         0.00000000
  -V(xc)+E(xc)   XCENC  =       -24.92653751
  PAW double counting   =      2096.28270710    -2003.48465294
  entropy T*S    EENTRO =        -0.00000000
  eigenvalues    EBANDS =      -154.19304555
  atomic energy  EATOM  =      2073.38295078
  ---------------------------------------------------
  free energy    TOTEN  =        -1.98990810 eV

  energy without entropy =       -1.98990810  energy(sigma->0) =       -1.98990810


--------------------------------------------------------------------------------------------------------




--------------------------------------- Iteration      1(  13)  ---------------------------------------


    POTLOK:  cpu time      0.3060: real time      0.3060
    SETDIJ:  cpu time      1.0347: real time      1.0362
    TRIAL :  cpu time      0.2432: real time      0.2431
    CORREC:  cpu time      4.1310: real time      4.1332
    CHARGE:  cpu time      2.5873: real time      2.5889
    --------------------------------------------
      LOOP:  cpu time      8.3095: real time      8.3243

 eigenvalue-minimisations  :     0
 total energy-change (2. order) :-0.1255110E-04  (-0.1574897E-05)
 number of electron      22.0000006 magnetization 
 augmentation part       10.6815796 magnetization 

 DIPCOR: dipole corrections for dipol
 direction  3 min pos     1,
 dipolmoment           0.000000      0.000000      0.000001 electrons x Angstroem
 Tr[quadrupol]     -4099.525542

 energy correction for charged system         0.000000 eV
 dipol+quadrupol energy correction           -0.000000 eV
 added-field ion interaction         -0.000001 eV  (added to PSCEN)


 Free energy of the ion-electron system (eV)
  ---------------------------------------------------
  alpha Z        PSCENC =         0.34430648
  Ewald energy   TEWEN  =       215.47733292
  -Hartree energ DENC   =     -2204.95983155
  -exchange      EXHF   =         0.00000000
  -V(xc)+E(xc)   XCENC  =       -24.92412191
  PAW double counting   =      2096.32527145    -2003.52820847
  entropy T*S    EENTRO =        -0.00000000
  eigenvalues    EBANDS =      -154.10762037
  atomic energy  EATOM  =      2073.38295078
  ---------------------------------------------------
  free energy    TOTEN  =        -1.98992065 eV

  energy without entropy =       -1.98992065  energy(sigma->0) =       -1.98992065


--------------------------------------------------------------------------------------------------------




--------------------------------------- Iteration      1(  14)  ---------------------------------------


    POTLOK:  cpu time      0.3085: real time      0.3092
    SETDIJ:  cpu time      1.0371: real time      1.0380
    TRIAL :  cpu time      0.2434: real time      0.2433
    CORREC:  cpu time      4.1302: real time      4.1334
    CHARGE:  cpu time      2.5977: real time      2.5988
    --------------------------------------------
      LOOP:  cpu time      8.3253: real time      8.3398

 eigenvalue-minimisations  :     0
 total energy-change (2. order) :-0.1437842E-05  (-0.4568173E-06)
 number of electron      22.0000006 magnetization 
 augmentation part       10.6814749 magnetization 

 DIPCOR: dipole corrections for dipol
 direction  3 min pos     1,
 dipolmoment           0.000000      0.000000      0.000001 electrons x Angstroem
 Tr[quadrupol]     -4099.525557

 energy correction for charged system         0.000000 eV
 dipol+quadrupol energy correction           -0.000000 eV
 added-field ion interaction         -0.000001 eV  (added to PSCEN)


 Free energy of the ion-electron system (eV)
  ---------------------------------------------------
  alpha Z        PSCENC =         0.34430648
  Ewald energy   TEWEN  =       215.47733292
  -Hartree energ DENC   =     -2204.91301404
  -exchange      EXHF   =         0.00000000
  -V(xc)+E(xc)   XCENC  =       -24.92546819
  PAW double counting   =      2096.26563025    -2003.46779206
  entropy T*S    EENTRO =        -0.00000000
  eigenvalues    EBANDS =      -154.15386824
  atomic energy  EATOM  =      2073.38295078
  ---------------------------------------------------
  free energy    TOTEN  =        -1.98992209 eV

  energy without entropy =       -1.98992209  energy(sigma->0) =       -1.98992209


--------------------------------------------------------------------------------------------------------




--------------------------------------- Iteration      1(  15)  ---------------------------------------


    POTLOK:  cpu time      0.3084: real time      0.3089
    SETDIJ:  cpu time      1.0341: real time      1.0348
    TRIAL :  cpu time      0.2587: real time      0.2586
    CORREC:  cpu time      4.1998: real time      4.2027
    EDDIAG:  cpu time      0.2988: real time      0.2935
    CHARGE:  cpu time      2.6403: real time      2.6421
    --------------------------------------------
      LOOP:  cpu time      8.7478: real time      8.7581

 eigenvalue-minimisations  :     0
 total energy-change (2. order) :-0.4237304E-06  (-0.4971991E-06)
 number of electron      22.0000006 magnetization 
 augmentation part       10.6815611 magnetization 

 DIPCOR: dipole corrections for dipol
 direction  3 min pos     1,
 dipolmoment           0.000000      0.000000      0.000001 electrons x Angstroem
 Tr[quadrupol]     -4099.525697

 energy correction for charged system         0.000000 eV
 dipol+quadrupol energy correction           -0.000000 eV
 added-field ion interaction         -0.000001 eV  (added to PSCEN)


 Free energy of the ion-electron system (eV)
  ---------------------------------------------------
  alpha Z        PSCENC =         0.34430647
  Ewald energy   TEWEN  =       215.47733292
  -Hartree energ DENC   =     -2204.89866536
  -exchange      EXHF   =         0.00000000
  -V(xc)+E(xc)   XCENC  =       -24.92588876
  PAW double counting   =      2096.24300462    -2003.44494535
  entropy T*S    EENTRO =        -0.00000000
  eigenvalues    EBANDS =      -154.16801783
  atomic energy  EATOM  =      2073.38295078
  ---------------------------------------------------
  free energy    TOTEN  =        -1.98992252 eV

  energy without entropy =       -1.98992252  energy(sigma->0) =       -1.98992252


--------------------------------------------------------------------------------------------------------


  average scaling for gradient   1.5854


 average (electrostatic) potential at core
  the test charge radii are     1.1249
  (the norm of the test charge is              1.0000)
       1 -82.0344       2 -82.0344
 
 
 
 E-fermi :  -4.7502     XC(G=0):  -0.1738     alpha+bet : -0.0465

 Fermi energy:        -4.7502168138

 k-point     1 :       0.0000    0.0000    0.0000
  band No.  band energies     occupation 
      1      -8.1704      2.00000
      2      -7.6820      2.00000
      3      -7.6820      2.00000
      4      -7.1945      2.00000
      5      -7.1945      2.00000
      6      -7.0114      2.00000
      7      -7.0114      2.00000
      8      -6.7572      2.00000
      9      -6.7572      2.00000
     10      -6.6059      2.00000
     11      -5.0124      2.00000
     12      -2.9996      0.00000
     13      -1.0121      0.00000
     14      -1.0118      0.00000
     15      -0.6182      0.00000
     16       0.0287      0.00000
     17       0.2217      0.00000
     18       0.2670      0.00000
     19       0.2969      0.00000
     20       0.3117      0.00000
     21       0.3312      0.00000
     22       0.3342      0.00000
     23       0.3706      0.00000
     24       0.4895      0.00000
     25       0.5814      0.00000
     26       0.5854      0.00000
     27       0.6046      0.00000
     28       0.6522      0.00000
     29       0.6534      0.00000
     30       0.6699      0.00000
     31       0.6727      0.00000
     32       0.6850      0.00000
     33       0.6998      0.00000
     34       0.7358      0.00000
     35       0.7583      0.00000
     36       0.7690      0.00000
     37       0.9060      0.00000
     38       0.9515      0.00000
     39       0.9516      0.00000
     40       0.9685      0.00000
     41       0.9966      0.00000
     42       1.0074      0.00000
     43       1.0079      0.00000
     44       1.1087      0.00000
     45       1.1621      0.00000
     46       1.2398      0.00000
     47       1.2987      0.00000
     48       1.3276      0.00000


--------------------------------------------------------------------------------------------------------


 soft charge-density along one line, spin component           1
         0         1         2         3         4         5         6         7         8         9
 total charge-density along one line
 
 pseudopotential strength for first ion, spin component:           1
-10.215   0.000  -0.018  -0.000   0.000 -10.194   0.000  -0.017
  0.000 -10.197   0.000   0.013  -0.000   0.000 -10.177   0.000
 -0.018   0.000 -10.195  -0.000   0.000  -0.017   0.000 -10.174
 -0.000   0.013  -0.000 -10.197  -0.000  -0.000   0.012  -0.000
  0.000  -0.000   0.000  -0.000 -10.210   0.000  -0.000   0.000
-10.194   0.000  -0.017  -0.000   0.000 -10.149   0.000  -0.017
  0.000 -10.177   0.000   0.012  -0.000   0.000 -10.132   0.000
 -0.017   0.000 -10.174  -0.000   0.000  -0.017   0.000 -10.130
 -0.000   0.012  -0.000 -10.177  -0.000  -0.000   0.012  -0.000
  0.000  -0.000   0.000  -0.000 -10.189   0.000  -0.000   0.000
 -0.011  -0.000  -0.006   0.000   0.000  -0.011  -0.000  -0.006
 -0.018  -0.000  -0.010   0.000   0.000  -0.017  -0.000  -0.010
  0.029  -0.000   0.017  -0.000   0.030   0.028  -0.000   0.016
 -0.000  -0.030   0.000   0.030  -0.000  -0.000  -0.030   0.000
 -0.029  -0.000  -0.017  -0.000   0.030  -0.028  -0.000  -0.016
  0.035  -0.000   0.020  -0.000   0.036   0.034  -0.000   0.020
 -0.000  -0.036   0.000   0.036  -0.000  -0.000  -0.035   0.000
 -0.035  -0.000  -0.020  -0.000   0.036  -0.034  -0.000  -0.020
 total augmentation occupancy for first ion, spin component:           1
  2.488  -0.000   0.196  -0.000  -0.000  -0.558   0.000  -0.276  -0.000   0.000   0.849  -0.124   0.083  -0.000  -0.083   0.010
 -0.000   2.200   0.000  -0.051   0.000  -0.000  -0.167  -0.000   0.086   0.000   0.000  -0.000  -0.000  -0.006   0.000  -0.000
  0.196   0.000   2.262  -0.000  -0.000  -0.276   0.000  -0.240   0.000   0.000   0.490  -0.071   0.048   0.000  -0.048   0.006
  0.000  -0.051  -0.000   2.200  -0.000   0.000   0.086  -0.000  -0.167   0.000   0.000   0.000   0.000   0.006   0.000   0.000
 -0.000   0.000  -0.000  -0.000   2.251   0.000   0.000   0.000   0.000  -0.253  -0.000   0.000   0.006  -0.000   0.006   0.019
 -0.558  -0.000  -0.276   0.000   0.000   0.613  -0.000   0.347   0.000  -0.000  -0.727   0.103  -0.117   0.000   0.117   0.011
  0.000  -0.167   0.000   0.086   0.000  -0.000   0.129   0.000  -0.117  -0.000   0.000   0.000   0.000   0.026   0.000   0.000
 -0.276  -0.000  -0.240  -0.000   0.000   0.347   0.000   0.213   0.000  -0.000  -0.420   0.060  -0.068   0.000   0.068   0.006
 -0.000   0.086   0.000  -0.167   0.000   0.000  -0.117   0.000   0.129  -0.000  -0.000  -0.000   0.000  -0.026   0.000   0.000
  0.000   0.000   0.000   0.000  -0.253  -0.000  -0.000  -0.000  -0.000   0.246   0.000  -0.000  -0.026   0.000  -0.026   0.002
  0.849   0.000   0.490   0.000  -0.000  -0.727   0.000  -0.420  -0.000   0.000   1.648  -0.169   0.170  -0.000  -0.170  -0.014
 -0.124  -0.000  -0.071   0.000   0.000   0.103   0.000   0.060   0.000  -0.000  -0.169   0.020  -0.021   0.000   0.021   0.002
  0.083  -0.000   0.048   0.000   0.006  -0.117   0.000  -0.068   0.000  -0.026   0.170  -0.021   0.027   0.000  -0.021  -0.003
 -0.000  -0.006   0.000   0.006  -0.000   0.000   0.026   0.000  -0.026   0.000  -0.000   0.000   0.000   0.006   0.000   0.000
 -0.083   0.000  -0.048   0.000   0.006   0.117   0.000   0.068   0.000  -0.026  -0.170   0.021  -0.021  -0.000   0.027   0.002
  0.010  -0.000   0.006   0.000   0.019   0.011   0.000   0.006   0.000   0.002  -0.014   0.002  -0.003   0.000   0.002   0.001
  0.000  -0.019   0.000   0.019   0.000   0.000  -0.002  -0.000   0.002   0.000   0.000  -0.000   0.000  -0.001   0.000  -0.000
 -0.010   0.000  -0.006  -0.000   0.019  -0.011  -0.000  -0.006  -0.000   0.002   0.014  -0.002   0.002   0.000  -0.003  -0.000


------------------------ aborting loop because EDIFF is reached ----------------------------------------


    FORLOC:  cpu time      0.0132: real time      0.0132
    FORNL :  cpu time      0.0632: real time      0.0632
    STRESS:  cpu time      0.1865: real time      0.1875
    FORCOR:  cpu time      0.2794: real time      0.2794
    OFIELD:  cpu time      0.0002: real time      0.0002

 ---------------------------------------------------------------------------------------------

         DFTD3 V3.0 Rev 1        
 IVDW         = 11
 DF revpbe    
 parameters
 VDW_S6       =    1.0000
 VDW_S8       =    1.0100
 VDW_SR       =    0.9230
 rs18     =    1.0000
 alpha6   =   14.0000
 alpha8   =   16.0000
 k1-k3    =   16.0000    1.3333   -4.0000
 VDW_RADIUS   =   50.2022 A
 VDW_CNRADIUS =   21.1671 A
 Edisp (eV)   -0.01395

 E6    (eV) :    -0.0080
 E8    (eV) :    -0.0060
 % E8        : 42.67
    FORVDW:  cpu time      0.0148: real time      0.0148

  FORCE on cell =-STRESS in cart. coord.  units (eV):
  Direction    XX          YY          ZZ          XY          YZ          ZX
  --------------------------------------------------------------------------------------
  Alpha Z     0.34431     0.34431     0.34431
  Ewald     192.04577   192.04577  -168.61425  -332.71971     0.00000    -0.00000
  Hartree   825.12741   825.12741   554.66364  -243.04764    -0.00000    -0.00000
  E(xc)    -116.09557  -116.09557  -116.62519    -0.52961    -0.00000    -0.00000
  Local   -1332.32426 -1332.32426  -706.15424   570.81470    -0.00000     0.00000
  n-local   -26.42340   -26.42340   -24.78282     1.64160    -0.00000     0.00000
  augment   182.73963   182.73963   183.63993     0.90008    -0.00000     0.00000
  Kinetic   274.60282   274.60282   277.51486     2.91127     0.00000    -0.00000
  Fock        0.00000     0.00000     0.00000     0.00000     0.00000     0.00000
  vdW         0.05524     0.05524    -0.00005    -0.05531    -0.00000     0.00000
  -------------------------------------------------------------------------------------
  Total       0.07195     0.07195    -0.01382    -0.08461     0.00000     0.00000
  in kB       0.01167     0.01167    -0.00224    -0.01372     0.00000     0.00000
  external pressure =        0.01 kB  Pullay stress =        0.00 kB


 VOLUME and BASIS-vectors are now :
 -----------------------------------------------------------------------------
  energy-cutoff  :      520.00
  volume of cell :     9881.61
      direct lattice vectors                 reciprocal lattice vectors
    21.138852197  0.000000000  0.000000000     0.047306258  0.000000000  0.000000000
     0.000000000 21.138852197  0.000000000     0.000000000  0.047306258  0.000000000
     0.000000000  0.000000000 22.113885220     0.000000000  0.000000000  0.045220457

  length of vectors
    21.138852197 21.138852197 22.113885220     0.047306258  0.047306258  0.045220457


 FORCES acting on ions:
    Electron-Ion                     Ewald-Force                    Non-Local-Force
 -----------------------------------------------------------------------------------------------
   -.188E+03 0.188E+03 0.338E-04   0.183E+03 -.183E+03 0.547E-17   0.531E+01 -.531E+01 0.213E-19
   0.188E+03 -.188E+03 0.338E-04   -.183E+03 0.183E+03 0.577E-17   -.531E+01 0.531E+01 0.198E-19
 -----------------------------------------------------------------------------------------------
   0.131E-06 0.912E-06 0.535E-04   0.000E+00 0.000E+00 0.112E-16   0.888E-15 -.888E-15 0.411E-19
 
 
 POSITION                                       TOTAL-FORCE (eV/Angst)
 -----------------------------------------------------------------------------------
     11.48437      9.65448     13.82858         0.045668     -0.045668     -0.000000
      9.65448     11.48437     13.82858        -0.045668      0.045668      0.000000
 -----------------------------------------------------------------------------------
    total drift:                                0.000000      0.000001      0.000053


--------------------------------------------------------------------------------------------------------



  FREE ENERGIE OF THE ION-ELECTRON SYSTEM (eV)
  ---------------------------------------------------
  free  energy   TOTEN  =        -2.00387118 eV

  energy  without entropy=       -2.00387118  energy(sigma->0) =       -2.00387118
 


--------------------------------------------------------------------------------------------------------


    POTLOK:  cpu time      1.3646: real time      1.3657


--------------------------------------------------------------------------------------------------------


     LOOP+:  cpu time     92.6175: real time     92.9154
    4ORBIT:  cpu time      0.0000: real time      0.0000

 total amount of memory used by VASP MPI-rank0    58444. kBytes
=======================================================================

   base      :      30000. kBytes
   nonlr-proj:        301. kBytes
   fftplans  :      11368. kBytes
   grid      :      15959. kBytes
   one-center:         15. kBytes
   wavefun   :        801. kBytes
 
  
  
 General timing and accounting informations for this job:
 ========================================================
  
                  Total CPU time used (sec):      110.203
                            User time (sec):      108.890
                          System time (sec):        1.313
                         Elapsed time (sec):      112.053
  
                   Maximum memory used (kb):      823152.
                   Average memory used (kb):          N/A
  
                          Minor page faults:        32746
                          Major page faults:            0
                 Voluntary context switches:         6050
