 vasp.6.3.0 20Jan22 (build Apr  1 2022 16:44:48) complex                         
 executed on        HPECrayEX_GCC date 2023.01.09  20:28:48
 running  768 mpi-ranks, with    1 threads/rank
 distrk:  each k-point on  384 cores,    2 groups
 distr:  one band on NCORE=   4 cores,   96 groups


--------------------------------------------------------------------------------------------------------


 INCAR:
   SYSTEM = MgO-rocksalt
   ISMEAR = 0
   SIGMA = 0.05
   EDIFF = 1E-6
   ALGO = ALL
   ISTART = 0
   IBRION = -1
   NSW = 0
   ISYM = 2
   GGA = PS
   IVDW = 13
   VDW_S8 = 1.71885698
   VDW_A1 = 0.47901421
   VDW_A2 = 5.96771589
   ENCUT = 520
   PREC = Accurate
   LASPH = .TRUE.
   LREAL = Auto
   ISPIN = 1
   NELM = 200
   NELMIN = 8
   NCORE = 4
   KPAR = 2
   LWAVE = .FALSE.
   LCHARG = .FALSE.

 POTCAR:    PAW_PBE Cu 22Jun2005                  
 POTCAR:    PAW_PBE Cu 22Jun2005                  
   SHA256 =  0e71e558f37a4e8407882b4609ceaae59938afaad9ced71dfe8490308a0ab630 Cu/POTCAR             
   COPYR  = (c) Copyright 22Jun2005 Georg Kresse                                                    
   COPYR  = This file is part of the software VASP. Any use, copying, and all other rights are regul
   COPYR  = If you do not have a valid VASP license, you may not use, copy or distribute this file. 
   VRHFIN =Cu: d10 p1                                                                               
   LEXCH  = PE                                                                                      
   EATOM  =  1390.9808 eV,  102.2342 Ry                                                             
                                                                                                    
   TITEL  = PAW_PBE Cu 22Jun2005                                                                    
   LULTRA =        F    use ultrasoft PP ?                                                          
   IUNSCR =        1    unscreen: 0-lin 1-nonlin 2-no                                               
   RPACOR =    2.000    partial core radius                                                         
   POMASS =   63.546; ZVAL   =   11.000    mass and valenz                                          
   RCORE  =    2.300    outmost cutoff radius                                                       
   RWIGS  =    2.200; RWIGS  =    1.164    wigner-seitz radius (au A)                               
   ENMAX  =  295.446; ENMIN  =  221.585 eV                                                          
   ICORE  =        3    local potential                                                             
   LCOR   =        T    correct aug charges                                                         
   LPAW   =        T    paw PP                                                                      
   EAUG   =  586.980                                                                                
   DEXC   =    0.000                                                                                
   RMAX   =    2.344    core radius for proj-oper                                                   
   RAUG   =    1.300    factor for augmentation sphere                                              
   RDEP   =    2.302    radius for radial grids                                                     
   RDEPT  =    1.771    core radius for aug-charge                                                  
                                                                                                    
   Atomic configuration                                                                             
    9 entries                                                                                       
     n  l   j            E        occ.                                                              
     1  0  0.50     -8850.2468   2.0000                                                             
     2  0  0.50     -1062.3498   2.0000                                                             
     2  1  1.50      -916.8226   6.0000                                                             
     3  0  0.50      -114.6929   2.0000                                                             
     3  1  1.50       -72.1325   6.0000                                                             
     3  2  2.50        -5.0394  10.0000                                                             
     4  0  0.50        -4.6097   1.0000                                                             
     4  1  0.50        -4.0817   0.0000                                                             
     4  3  2.50        -1.3606   0.0000                                                             
   Description                                                                                      
     l       E           TYP  RCUT    TYP  RCUT                                                     
     2     -5.0393973     23  2.200                                                                 
     2     10.8846608     23  2.200                                                                 
     0     -4.6097109     23  2.200                                                                 
     0      8.2520465     23  2.200                                                                 
     1     -2.7211652     23  2.200                                                                 
     1     21.7055443     23  2.200                                                                 
     3      2.7211652     23  2.300                                                                 
  local pseudopotential read in
  partial core-charges read in
  partial kinetic energy density read in
  atomic valenz-charges read in
  non local Contribution for L=           2  read in
    real space projection operators read in
  non local Contribution for L=           2  read in
    real space projection operators read in
  non local Contribution for L=           0  read in
    real space projection operators read in
  non local Contribution for L=           0  read in
    real space projection operators read in
  non local Contribution for L=           1  read in
    real space projection operators read in
  non local Contribution for L=           1  read in
    real space projection operators read in
    PAW grid and wavefunctions read in

   number of l-projection  operators is LMAX  =           6
   number of lm-projection operators is LMMAX =          18

 -----------------------------------------------------------------------------
|                                                                             |
|               ----> ADVICE to this user running VASP <----                  |
|                                                                             |
|     You have a (more or less) 'small supercell' and for smaller cells       |
|     it is recommended to use the reciprocal-space projection scheme!        |
|     The real-space optimization is not efficient for small cells and it     |
|     is also less accurate ...                                               |
|     Therefore, set LREAL=.FALSE. in the INCAR file.                         |
|                                                                             |
 -----------------------------------------------------------------------------

 Optimization of the real space projectors (new method)

 maximal supplied QI-value         = 16.25
 optimisation between [QCUT,QGAM] = [ 11.54, 23.24] = [ 37.28,151.24] Ry 
 Optimized for a Real-space Cutoff    1.53 Angstroem

   l    n(q)    QCUT    max X(q) W(low)/X(q) W(high)/X(q)  e(spline) 
   2     10    11.539     4.610    0.96E-04    0.13E-03    0.19E-06
   2     10    11.539     8.522    0.16E-03    0.21E-03    0.28E-06
   0     11    11.539    51.609    0.45E-04    0.31E-04    0.11E-06
   0     11    11.539    27.747    0.39E-04    0.29E-04    0.10E-06
   1     10    11.539    20.408    0.70E-05    0.38E-04    0.18E-06
   1     10    11.539    13.425    0.66E-05    0.34E-04    0.17E-06
 -----------------------------------------------------------------------------
|                                                                             |
|               ----> ADVICE to this user running VASP <----                  |
|                                                                             |
|     You enforced a specific xc type in the INCAR file but a different       |
|     type was found in the POTCAR file.                                      |
|     I HOPE YOU KNOW WHAT YOU ARE DOING!                                     |
|                                                                             |
 -----------------------------------------------------------------------------

  PAW_PBE Cu 22Jun2005                  :
 energy of atom  1       EATOM=-1390.9808
 kinetic energy error for atom=    0.0037 (will be added to EATOM!!)


 POSCAR: Cu Mg  O
  positions in direct lattice
  No initial velocities read in
 -----------------------------------------------------------------------------
|                                                                             |
|           W    W    AA    RRRRR   N    N  II  N    N   GGGG   !!!           |
|           W    W   A  A   R    R  NN   N  II  NN   N  G    G  !!!           |
|           W    W  A    A  R    R  N N  N  II  N N  N  G       !!!           |
|           W WW W  AAAAAA  RRRRR   N  N N  II  N  N N  G  GGG   !            |
|           WW  WW  A    A  R   R   N   NN  II  N   NN  G    G                |
|           W    W  A    A  R    R  N    N  II  N    N   GGGG   !!!           |
|                                                                             |
|     Specifying the vdW parameters                                           |
|     VDW_S8 = 1.719                                                          |
|     VDW_A1 = 0.479                                                          |
|     VDW_A2 = 5.968                                                          |
|     in the INCAR file will overwrite the defaults for pbesol. Please        |
|     make sure that is what you intended.                                    |
|                                                                             |
 -----------------------------------------------------------------------------

 exchange correlation table for  LEXCH =       14
   RHO(1)=    0.500       N(1)  =     2000
   RHO(2)=  100.500       N(2)  =     4000



--------------------------------------------------------------------------------------------------------


 ion  position               nearest neighbor table
   1  0.400  0.558  0.598-   3 2.35   4 2.47
   2  0.400  0.499  0.790-   3 2.25
   3  0.400  0.499  0.688-   2 2.25   1 2.35   4 2.35
   4  0.400  0.441  0.597-   3 2.35   1 2.47

  LATTYP: Found a simple tetragonal cell.
 ALAT       =    21.1388521970
 C/A-ratio  =     1.0461251639
  
  Lattice vectors:
  
 A1 = (  21.1388521970,   0.0000000000,   0.0000000000)
 A2 = (   0.0000000000,  21.1388521970,   0.0000000000)
 A3 = (   0.0000000000,   0.0000000000,  22.1138852197)


Analysis of symmetry for initial positions (statically):
=====================================================================
 Subroutine PRICEL returns:
 Original cell was already a primitive cell.
 

 Routine SETGRP: Setting up the symmetry group for a 
 simple tetragonal supercell.


 Subroutine GETGRP returns: Found  1 space group operations
 (whereof  1 operations were pure point group operations)
 out of a pool of 16 trial point group operations.


The static configuration has the point symmetry C_1 .


Analysis of symmetry for dynamics (positions and initial velocities):
=====================================================================
 Subroutine PRICEL returns:
 Original cell was already a primitive cell.
 

 Routine SETGRP: Setting up the symmetry group for a 
 simple tetragonal supercell.


 Subroutine GETGRP returns: Found  1 space group operations
 (whereof  1 operations were pure point group operations)
 out of a pool of 16 trial point group operations.


The dynamic configuration has the point symmetry C_1 .


Analysis of constrained symmetry for selective dynamics:
=====================================================================
 Subroutine PRICEL returns:
 Original cell was already a primitive cell.
 

 Routine SETGRP: Setting up the symmetry group for a 
 simple tetragonal supercell.


 Subroutine GETGRP returns: Found  1 space group operations
 (whereof  1 operations were pure point group operations)
 out of a pool of 16 trial point group operations.


The constrained configuration has the point symmetry C_1 .


 Subroutine INISYM returns: Found  1 space group operations
 (whereof  1 operations are pure point group operations),
 and found     1 'primitive' translations


----------------------------------------------------------------------------------------

                                     Primitive cell                                     

  volume of cell :    9881.6133

  direct lattice vectors                    reciprocal lattice vectors
    21.138852197  0.000000000  0.000000000     0.047306258  0.000000000  0.000000000
     0.000000000 21.138852197  0.000000000     0.000000000  0.047306258  0.000000000
     0.000000000  0.000000000 22.113885220     0.000000000  0.000000000  0.045220457

  length of vectors
    21.138852197 21.138852197 22.113885220     0.047306258  0.047306258  0.045220457

  position of ions in fractional coordinates (direct lattice)
     0.399799103  0.557704010  0.597819508
     0.399656041  0.499161715  0.789905234
     0.399599063  0.498964654  0.687952686
     0.399792629  0.441052696  0.597113492

  ion indices of the primitive-cell ions
   primitive index   ion index
                 1           1
                 2           2
                 3           3
                 4           4

----------------------------------------------------------------------------------------



 KPOINTS: KPOINTS created by Atomic Simulation Env

Automatic generation of k-mesh.
 Grid dimensions read from file:
 generate k-points for:    1    1    1

 Generating k-lattice:

  Cartesian coordinates                     Fractional coordinates (reciprocal lattice)
     0.047306258  0.000000000  0.000000000     1.000000000  0.000000000  0.000000000
     0.000000000  0.047306258  0.000000000     0.000000000  1.000000000  0.000000000
     0.000000000  0.000000000  0.045220457     0.000000000  0.000000000  1.000000000

  Length of vectors
     0.047306258  0.047306258  0.045220457

  Shift w.r.t. Gamma in fractional coordinates (k-lattice)
     0.000000000  0.000000000  0.000000000

 
 Subroutine IBZKPT returns following result:
 ===========================================
 
 Found      1 irreducible k-points:
 
 Following reciprocal coordinates:
            Coordinates               Weight
  0.000000  0.000000  0.000000      1.000000
 
 Following cartesian coordinates:
            Coordinates               Weight
  0.000000  0.000000  0.000000      1.000000
 


--------------------------------------------------------------------------------------------------------




 Dimension of arrays:
   k-points           NKPTS =      1   k-points in BZ     NKDIM =      1   number of bands    NBANDS=     96
   number of dos      NEDOS =    301   number of ions     NIONS =      4
   non local maximal  LDIM  =      6   non local SUM 2l+1 LMDIM =     18
   total plane-waves  NPLWV = ******
   max r-space proj   IRMAX =   6628   max aug-charges    IRDMAX=  12805
   dimension x,y,z NGX =   160 NGY =  160 NGZ =  168
   dimension x,y,z NGXF=   320 NGYF=  320 NGZF=  336
   support grid    NGXF=   320 NGYF=  320 NGZF=  336
   ions per type =               4
   NGX,Y,Z   is equivalent  to a cutoff of  12.58, 12.58, 12.63 a.u.
   NGXF,Y,Z  is equivalent  to a cutoff of  25.17, 25.17, 25.26 a.u.

 SYSTEM =  MgO-rocksalt                            
 POSCAR =  Cu Mg  O                                

 Startparameter for this run:
   NWRITE =      2    write-flag & timer
   PREC   = accura    normal or accurate (medium, high low for compatibility)
   ISTART =      0    job   : 0-new  1-cont  2-samecut
   ICHARG =      2    charge: 1-file 2-atom 10-const
   ISPIN  =      1    spin polarized calculation?
   LNONCOLLINEAR =      F non collinear calculations
   LSORBIT =      F    spin-orbit coupling
   INIWAV =      1    electr: 0-lowe 1-rand  2-diag
   LASPH  =      T    aspherical Exc in radial PAW
 Electronic Relaxation 1
   ENCUT  =  520.0 eV  38.22 Ry    6.18 a.u.  39.30 39.30 41.12*2*pi/ulx,y,z
   ENINI  =  520.0     initial cutoff
   ENAUG  =  587.0 eV  augmentation charge cutoff
   NELM   =    200;   NELMIN=  8; NELMDL= -5     # of ELM steps 
   EDIFF  = 0.1E-05   stopping-criterion for ELM
   LREAL  =      T    real-space projection
   NLSPLINE    = F    spline interpolate recip. space projectors
   LCOMPAT=      F    compatible to vasp.4.4
   GGA_COMPAT  = T    GGA compatible to vasp.4.4-vasp.4.6
   LMAXPAW     = -100 max onsite density
   LMAXMIX     =    2 max onsite mixed and CHGCAR
   VOSKOWN=      0    Vosko Wilk Nusair interpolation
   ROPT   =   -0.00025
 Ionic relaxation
   EDIFFG = 0.1E-04   stopping-criterion for IOM
   NSW    =      0    number of steps for IOM
   NBLOCK =      1;   KBLOCK =      1    inner block; outer block 
   IBRION =     -1    ionic relax: 0-MD 1-quasi-New 2-CG
   NFREE  =      0    steps in history (QN), initial steepest desc. (CG)
   ISIF   =      2    stress and relaxation
   IWAVPR =     10    prediction:  0-non 1-charg 2-wave 3-comb
   ISYM   =      2    0-nonsym 1-usesym 2-fastsym
   LCORR  =      T    Harris-Foulkes like correction to forces

   POTIM  = 0.5000    time-step for ionic-motion
   TEIN   =    0.0    initial temperature
   TEBEG  =    0.0;   TEEND  =   0.0 temperature during run
   SMASS  =  -3.00    Nose mass-parameter (am)
   estimated Nose-frequenzy (Omega)   =  0.10E-29 period in steps = 0.13E+47 mass=  -0.102E-25a.u.
   SCALEE = 1.0000    scale energy and forces
   NPACO  =    256;   APACO  = 10.0  distance and # of slots for P.C.
   PSTRESS=    0.0 pullay stress

  Mass of Ions in am
   POMASS =  63.55
  Ionic Valenz
   ZVAL   =  11.00
  Atomic Wigner-Seitz radii
   RWIGS  =  -1.00
  virtual crystal weights 
   VCA    =   1.00
   NELECT =      44.0000    total number of electrons
   NUPDOWN=      -1.0000    fix difference up-down

 DOS related values:
   EMIN   =  10.00;   EMAX   =-10.00  energy-range for DOS
   EFERMI =   0.00
   ISMEAR =     0;   SIGMA  =   0.05  broadening in eV -4-tet -1-fermi 0-gaus

 Electronic relaxation 2 (details)
   IALGO  =     58    algorithm
   LDIAG  =      T    sub-space diagonalisation (order eigenvalues)
   LSUBROT=      F    optimize rotation matrix (better conditioning)
   TURBO    =      0    0=normal 1=particle mesh
   IRESTART =      0    0=no restart 2=restart with 2 vectors
   NREBOOT  =      0    no. of reboots
   NMIN     =      0    reboot dimension
   EREF     =   0.00    reference energy to select bands
   IMIX   =      4    mixing-type and parameters
     AMIX     =   0.40;   BMIX     =  1.00
     AMIX_MAG =   1.60;   BMIX_MAG =  1.00
     AMIN     =   0.10
     WC   =   100.;   INIMIX=   1;  MIXPRE=   1;  MAXMIX= -45

 Intra band minimization:
   WEIMIN = 0.0000     energy-eigenvalue tresh-hold
   EBREAK =  0.26E-08  absolut break condition
   DEPER  =   0.30     relativ break condition  

   TIME   =   0.40     timestep for ELM

  volume/ion in A,a.u.               =    2470.40     16671.10
  Fermi-wavevector in a.u.,A,eV,Ry     =   0.269329  0.508958  0.986941  0.072538
  Thomas-Fermi vector in A             =   1.106612

 Write flags
   LWAVE        =      F    write WAVECAR
   LDOWNSAMPLE  =      F    k-point downsampling of WAVECAR
   LCHARG       =      F    write CHGCAR
   LVTOT        =      F    write LOCPOT, total local potential
   LVHAR        =      F    write LOCPOT, Hartree potential only
   LELF         =      F    write electronic localiz. function (ELF)
   LORBIT       =      0    0 simple, 1 ext, 2 COOP (PROOUT), +10 PAW based schemes


 Dipole corrections
   LMONO  =      F    monopole corrections only (constant potential shift)
   LDIPOL =      F    correct potential (dipole corrections)
   IDIPOL =      0    1-x, 2-y, 3-z, 4-all directions 
   EPSILON=  1.0000000 bulk dielectric constant

 Exchange correlation treatment:
   GGA     =    PS    GGA type
   LEXCH   =    14    internal setting for exchange type
   LIBXC   =     F    Libxc                    
   VOSKOWN =     0    Vosko Wilk Nusair interpolation
   LHFCALC =     F    Hartree Fock is set to
   LHFONE  =     F    Hartree Fock one center treatment
   AEXX    =    0.0000 exact exchange contribution

 Linear response parameters
   LEPSILON=     F    determine dielectric tensor
   LRPA    =     F    only Hartree local field effects (RPA)
   LNABLA  =     F    use nabla operator in PAW spheres
   LVEL    =     F    velocity operator in full k-point grid
   CSHIFT  =0.1000    complex shift for real part using Kramers Kronig
   OMEGAMAX=  -1.0    maximum frequency
   DEG_THRESHOLD= 0.2000000E-02 threshold for treating states as degnerate
   RTIME   =   -0.100 relaxation time in fs
  (WPLASMAI=    0.000 imaginary part of plasma frequency in eV, 0.658/RTIME)
   DFIELD  = 0.0000000 0.0000000 0.0000000 field for delta impulse in time

  Optional k-point grid parameters
   LKPOINTS_OPT  =     F    use optional k-point grid
   KPOINTS_OPT_MODE=     1    mode for optional k-point grid

 Orbital magnetization related:
   ORBITALMAG=     F  switch on orbital magnetization
   LCHIMAG   =     F  perturbation theory with respect to B field
   DQ        =  0.001000  dq finite difference perturbation B field
   LLRAUG    =     F  two centre corrections for induced B field



--------------------------------------------------------------------------------------------------------


 Static calculation
 charge density and potential will be updated during run
 non-spin polarized calculation
 Conjugate gradient for all bands (Freysoldt, et al. PRB 79, 241103 (2009))
 preconditioned conjugated gradient                                        
 perform sub-space diagonalisation
    before iterative eigenvector-optimisation
 modified Broyden-mixing scheme, WC =      100.0
 initial mixing is a Kerker type mixing with AMIX =  0.4000 and BMIX =      1.0000
 Hartree-type preconditioning will be used
 using additional bands           74
 real space projection scheme for non local part
 use partial core corrections
 no Harris-corrections to forces 
 use gradient corrections 
 use of overlap-Matrix (Vanderbilt PP)
 Gauss-broadening in eV      SIGMA  =   0.05


--------------------------------------------------------------------------------------------------------


  energy-cutoff  :      520.00
  volume of cell :     9881.61
      direct lattice vectors                 reciprocal lattice vectors
    21.138852197  0.000000000  0.000000000     0.047306258  0.000000000  0.000000000
     0.000000000 21.138852197  0.000000000     0.000000000  0.047306258  0.000000000
     0.000000000  0.000000000 22.113885220     0.000000000  0.000000000  0.045220457

  length of vectors
    21.138852197 21.138852197 22.113885220     0.047306258  0.047306258  0.045220457



 k-points in units of 2pi/SCALE and weight: KPOINTS created by Atomic Simulation Env
   0.00000000  0.00000000  0.00000000       1.000

 k-points in reciprocal lattice and weights: KPOINTS created by Atomic Simulation Env
   0.00000000  0.00000000  0.00000000       1.000

 position of ions in fractional coordinates (direct lattice) 
   0.39979910  0.55770401  0.59781951
   0.39965604  0.49916171  0.78990523
   0.39959906  0.49896465  0.68795269
   0.39979263  0.44105270  0.59711349

 position of ions in cartesian coordinates  (Angst):
   8.45129415 11.78922263 13.22011198
   8.44826999 10.55170571 17.46787367
   8.44706554 10.54754007 15.21330674
   8.45115730  9.32334774 13.20449923



--------------------------------------------------------------------------------------------------------


 k-point   1 :   0.0000 0.0000 0.0000  plane waves:  265979

 maximum and minimum number of plane-waves per node :     66495    66494

 maximum number of plane-waves:    265979
 maximum index in each direction: 
   IXMAX=   39   IYMAX=   39   IZMAX=   41
   IXMIN=  -39   IYMIN=  -39   IZMIN=  -41


 real space projection operators:
  total allocation   :       3590.44 KBytes
  max/ min on nodes  :        909.70        887.06


 parallel 3D FFT for wavefunctions:
    minimum data exchange during FFTs selected (reduces bandwidth)
 parallel 3D FFT for charge:
    minimum data exchange during FFTs selected (reduces bandwidth)


 total amount of memory used by VASP MPI-rank0   118515. kBytes
=======================================================================

   base      :      30000. kBytes
   nonlr-proj:       1540. kBytes
   fftplans  :      35474. kBytes
   grid      :      48291. kBytes
   one-center:         15. kBytes
   wavefun   :       3195. kBytes

     INWAV:  cpu time      0.0000: real time      0.0000
 Broyden mixing: mesh for mixing (old mesh)
   NGX = 79   NGY = 79   NGZ = 83
  (NGX  =320   NGY  =320   NGZ  =336)
  gives a total of 518003 points

 initial charge density was supplied:
 charge density of overlapping atoms calculated
 number of electron      44.0000000 magnetization 
 keeping initial charge density in first step


--------------------------------------------------------------------------------------------------------


 Maximum index for non-local projection operator         1580
 Maximum index for augmentation-charges            0 (set IRDMAX)


--------------------------------------------------------------------------------------------------------


 First call to EWALD:  gamma=   0.083
 Maximum number of real-space cells 3x 3x 3
 Maximum number of reciprocal cells 3x 3x 3

    FEWALD:  cpu time      0.0010: real time      0.0010


--------------------------------------- Iteration      1(   1)  ---------------------------------------


    POTLOK:  cpu time      0.1391: real time      0.1393
    SETDIJ:  cpu time      0.1796: real time      0.1796
    TRIAL :  cpu time      0.6315: real time      0.6318
    CORREC:  cpu time      0.0009: real time      0.0009
    --------------------------------------------
      LOOP:  cpu time      0.9525: real time      0.9530

 eigenvalue-minimisations  :   192
 total energy-change (2. order) : 0.2372824E+03  (-0.8548704E+03)
 number of electron      44.0000000 magnetization 
 augmentation part       44.0000000 magnetization 

 Free energy of the ion-electron system (eV)
  ---------------------------------------------------
  alpha Z        PSCENC =         1.18414354
  Ewald energy   TEWEN  =      1928.01159838
  -Hartree energ DENC   =     -7008.08569566
  -exchange      EXHF   =         0.00000000
  -V(xc)+E(xc)   XCENC  =       180.44742258
  PAW double counting   =      4909.51469686    -5333.97040637
  entropy T*S    EENTRO =        -0.07155978
  eigenvalues    EBANDS =        -0.98797267
  atomic energy  EATOM  =      5561.24017777
  ---------------------------------------------------
  free energy    TOTEN  =       237.28240465 eV

  energy without entropy =      237.35396443  energy(sigma->0) =      237.31818454


--------------------------------------------------------------------------------------------------------




--------------------------------------- Iteration      1(   2)  ---------------------------------------


    TRIAL :  cpu time      0.6206: real time      0.6206
    CORREC:  cpu time      0.0003: real time      0.0003
    --------------------------------------------
      LOOP:  cpu time      0.6258: real time      0.6299

 eigenvalue-minimisations  :   192
 total energy-change (2. order) :-0.2387134E+03  (-0.2378821E+03)
 number of electron      44.0000000 magnetization 
 augmentation part       44.0000000 magnetization 

 Free energy of the ion-electron system (eV)
  ---------------------------------------------------
  alpha Z        PSCENC =         1.18414354
  Ewald energy   TEWEN  =      1928.01159838
  -Hartree energ DENC   =     -7008.08569566
  -exchange      EXHF   =         0.00000000
  -V(xc)+E(xc)   XCENC  =       180.44742258
  PAW double counting   =      4909.51469686    -5333.97040637
  entropy T*S    EENTRO =        -0.00000000
  eigenvalues    EBANDS =      -239.77291581
  atomic energy  EATOM  =      5561.24017777
  ---------------------------------------------------
  free energy    TOTEN  =        -1.43097871 eV

  energy without entropy =       -1.43097871  energy(sigma->0) =       -1.43097871


--------------------------------------------------------------------------------------------------------




--------------------------------------- Iteration      1(   3)  ---------------------------------------


    TRIAL :  cpu time      0.6315: real time      0.6316
    CORREC:  cpu time      0.0003: real time      0.0003
    --------------------------------------------
      LOOP:  cpu time      0.6356: real time      0.6402

 eigenvalue-minimisations  :   192
 total energy-change (2. order) :-0.7410524E+01  (-0.7410524E+01)
 number of electron      44.0000000 magnetization 
 augmentation part       44.0000000 magnetization 

 Free energy of the ion-electron system (eV)
  ---------------------------------------------------
  alpha Z        PSCENC =         1.18414354
  Ewald energy   TEWEN  =      1928.01159838
  -Hartree energ DENC   =     -7008.08569566
  -exchange      EXHF   =         0.00000000
  -V(xc)+E(xc)   XCENC  =       180.44742258
  PAW double counting   =      4909.51469686    -5333.97040637
  entropy T*S    EENTRO =        -0.00000000
  eigenvalues    EBANDS =      -247.18343948
  atomic energy  EATOM  =      5561.24017777
  ---------------------------------------------------
  free energy    TOTEN  =        -8.84150238 eV

  energy without entropy =       -8.84150238  energy(sigma->0) =       -8.84150238


--------------------------------------------------------------------------------------------------------




--------------------------------------- Iteration      1(   4)  ---------------------------------------


    TRIAL :  cpu time      0.6230: real time      0.6236
    CORREC:  cpu time      0.0003: real time      0.0003
    --------------------------------------------
      LOOP:  cpu time      0.6314: real time      0.6324

 eigenvalue-minimisations  :   192
 total energy-change (2. order) :-0.1461675E+00  (-0.1461675E+00)
 number of electron      44.0000000 magnetization 
 augmentation part       44.0000000 magnetization 

 Free energy of the ion-electron system (eV)
  ---------------------------------------------------
  alpha Z        PSCENC =         1.18414354
  Ewald energy   TEWEN  =      1928.01159838
  -Hartree energ DENC   =     -7008.08569566
  -exchange      EXHF   =         0.00000000
  -V(xc)+E(xc)   XCENC  =       180.44742258
  PAW double counting   =      4909.51469686    -5333.97040637
  entropy T*S    EENTRO =        -0.00000000
  eigenvalues    EBANDS =      -247.32960695
  atomic energy  EATOM  =      5561.24017777
  ---------------------------------------------------
  free energy    TOTEN  =        -8.98766985 eV

  energy without entropy =       -8.98766985  energy(sigma->0) =       -8.98766985


--------------------------------------------------------------------------------------------------------




--------------------------------------- Iteration      1(   5)  ---------------------------------------


    TRIAL :  cpu time      2.0141: real time      2.0143
    CORREC:  cpu time      0.0003: real time      0.0003
    CHARGE:  cpu time      0.1184: real time      0.1186
    --------------------------------------------
      LOOP:  cpu time      2.1370: real time      2.1416

 eigenvalue-minimisations  :   384
 total energy-change (2. order) :-0.2317017E-02  (-0.2317017E-02)
 number of electron      44.0000017 magnetization 
 augmentation part       27.4639656 magnetization 

 Free energy of the ion-electron system (eV)
  ---------------------------------------------------
  alpha Z        PSCENC =         1.18414354
  Ewald energy   TEWEN  =      1928.01159838
  -Hartree energ DENC   =     -7008.08569566
  -exchange      EXHF   =         0.00000000
  -V(xc)+E(xc)   XCENC  =       180.44742258
  PAW double counting   =      4909.51469686    -5333.97040637
  entropy T*S    EENTRO =        -0.00000000
  eigenvalues    EBANDS =      -247.33192396
  atomic energy  EATOM  =      5561.24017777
  ---------------------------------------------------
  free energy    TOTEN  =        -8.98998686 eV

  energy without entropy =       -8.98998686  energy(sigma->0) =       -8.98998686


--------------------------------------------------------------------------------------------------------




--------------------------------------- Iteration      1(   6)  ---------------------------------------


    POTLOK:  cpu time      0.1203: real time      0.1203
    SETDIJ:  cpu time      0.1815: real time      0.1815
    TRIAL :  cpu time      0.9104: real time      0.9109
    CORREC:  cpu time      0.5078: real time      0.5078
    CHARGE:  cpu time      0.1169: real time      0.1170
    --------------------------------------------
      LOOP:  cpu time      1.8392: real time      1.8446

 eigenvalue-minimisations  :     0
 total energy-change (2. order) : 0.4898712E+01  (-0.2752170E+01)
 number of electron      44.0000018 magnetization 
 augmentation part       28.3829599 magnetization 

 Free energy of the ion-electron system (eV)
  ---------------------------------------------------
  alpha Z        PSCENC =         1.18414354
  Ewald energy   TEWEN  =      1928.01159838
  -Hartree energ DENC   =     -6917.29290918
  -exchange      EXHF   =         0.00000000
  -V(xc)+E(xc)   XCENC  =       174.20502926
  PAW double counting   =      4999.88592467    -5399.61976406
  entropy T*S    EENTRO =        -0.00000000
  eigenvalues    EBANDS =      -351.70547533
  atomic energy  EATOM  =      5561.24017777
  ---------------------------------------------------
  free energy    TOTEN  =        -4.09127495 eV

  energy without entropy =       -4.09127495  energy(sigma->0) =       -4.09127495


--------------------------------------------------------------------------------------------------------




--------------------------------------- Iteration      1(   7)  ---------------------------------------


    POTLOK:  cpu time      0.1250: real time      0.1250
    SETDIJ:  cpu time      0.1773: real time      0.1774
    TRIAL :  cpu time      0.2518: real time      0.2519
    CORREC:  cpu time      0.5039: real time      0.5039
    CHARGE:  cpu time      0.1171: real time      0.1171
    --------------------------------------------
      LOOP:  cpu time      1.1820: real time      1.1824

 eigenvalue-minimisations  :     0
 total energy-change (2. order) :-0.2488020E+01  (-0.6454747E+00)
 number of electron      44.0000017 magnetization 
 augmentation part       28.1704466 magnetization 

 Free energy of the ion-electron system (eV)
  ---------------------------------------------------
  alpha Z        PSCENC =         1.18414354
  Ewald energy   TEWEN  =      1928.01159838
  -Hartree energ DENC   =     -7031.22545116
  -exchange      EXHF   =         0.00000000
  -V(xc)+E(xc)   XCENC  =       179.09748493
  PAW double counting   =      5075.01962146    -5508.98938591
  entropy T*S    EENTRO =        -0.00000000
  eigenvalues    EBANDS =      -210.91748365
  atomic energy  EATOM  =      5561.24017777
  ---------------------------------------------------
  free energy    TOTEN  =        -6.57929464 eV

  energy without entropy =       -6.57929464  energy(sigma->0) =       -6.57929464


--------------------------------------------------------------------------------------------------------




--------------------------------------- Iteration      1(   8)  ---------------------------------------


    POTLOK:  cpu time      0.1211: real time      0.1212
    SETDIJ:  cpu time      0.1793: real time      0.1794
    TRIAL :  cpu time      0.2524: real time      0.2524
    CORREC:  cpu time      0.5064: real time      0.5064
    CHARGE:  cpu time      0.1178: real time      0.1179
    --------------------------------------------
      LOOP:  cpu time      1.1812: real time      1.1853

 eigenvalue-minimisations  :     0
 total energy-change (2. order) :-0.6390869E+00  (-0.1523618E+00)
 number of electron      44.0000018 magnetization 
 augmentation part       28.3692321 magnetization 

 Free energy of the ion-electron system (eV)
  ---------------------------------------------------
  alpha Z        PSCENC =         1.18414354
  Ewald energy   TEWEN  =      1928.01159838
  -Hartree energ DENC   =     -6980.34252258
  -exchange      EXHF   =         0.00000000
  -V(xc)+E(xc)   XCENC  =       177.76300358
  PAW double counting   =      5048.32399088    -5471.65592914
  entropy T*S    EENTRO =        -0.00000000
  eigenvalues    EBANDS =      -271.74284394
  atomic energy  EATOM  =      5561.24017777
  ---------------------------------------------------
  free energy    TOTEN  =        -7.21838151 eV

  energy without entropy =       -7.21838151  energy(sigma->0) =       -7.21838151


--------------------------------------------------------------------------------------------------------




--------------------------------------- Iteration      1(   9)  ---------------------------------------


    POTLOK:  cpu time      0.1226: real time      0.1226
    SETDIJ:  cpu time      0.1792: real time      0.1792
    TRIAL :  cpu time      0.2522: real time      0.2522
    CORREC:  cpu time      0.5056: real time      0.5056
    CHARGE:  cpu time      0.1174: real time      0.1174
    --------------------------------------------
      LOOP:  cpu time      1.1809: real time      1.1842

 eigenvalue-minimisations  :     0
 total energy-change (2. order) :-0.1493760E+00  (-0.9972116E-01)
 number of electron      44.0000018 magnetization 
 augmentation part       28.3189757 magnetization 

 Free energy of the ion-electron system (eV)
  ---------------------------------------------------
  alpha Z        PSCENC =         1.18414354
  Ewald energy   TEWEN  =      1928.01159838
  -Hartree energ DENC   =     -7003.57960834
  -exchange      EXHF   =         0.00000000
  -V(xc)+E(xc)   XCENC  =       178.86728225
  PAW double counting   =      5068.17819418    -5498.26117463
  entropy T*S    EENTRO =        -0.00000000
  eigenvalues    EBANDS =      -243.00837067
  atomic energy  EATOM  =      5561.24017777
  ---------------------------------------------------
  free energy    TOTEN  =        -7.36775752 eV

  energy without entropy =       -7.36775752  energy(sigma->0) =       -7.36775752


--------------------------------------------------------------------------------------------------------




--------------------------------------- Iteration      1(  10)  ---------------------------------------


    POTLOK:  cpu time      0.1223: real time      0.1223
    SETDIJ:  cpu time      0.1791: real time      0.1791
    TRIAL :  cpu time      0.2522: real time      0.2522
    CORREC:  cpu time      0.5056: real time      0.5056
    CHARGE:  cpu time      0.1186: real time      0.1186
    --------------------------------------------
      LOOP:  cpu time      1.1854: real time      1.1857

 eigenvalue-minimisations  :     0
 total energy-change (2. order) :-0.9997056E-01  (-0.2833168E-01)
 number of electron      44.0000017 magnetization 
 augmentation part       28.3455872 magnetization 

 Free energy of the ion-electron system (eV)
  ---------------------------------------------------
  alpha Z        PSCENC =         1.18414354
  Ewald energy   TEWEN  =      1928.01159838
  -Hartree energ DENC   =     -6999.67182179
  -exchange      EXHF   =         0.00000000
  -V(xc)+E(xc)   XCENC  =       178.67504681
  PAW double counting   =      5071.26613620    -5498.07577373
  entropy T*S    EENTRO =        -0.00000000
  eigenvalues    EBANDS =      -250.09723526
  atomic energy  EATOM  =      5561.24017777
  ---------------------------------------------------
  free energy    TOTEN  =        -7.46772809 eV

  energy without entropy =       -7.46772809  energy(sigma->0) =       -7.46772809


--------------------------------------------------------------------------------------------------------




--------------------------------------- Iteration      1(  11)  ---------------------------------------


    POTLOK:  cpu time      0.1210: real time      0.1210
    SETDIJ:  cpu time      0.1814: real time      0.1814
    TRIAL :  cpu time      0.2514: real time      0.2514
    CORREC:  cpu time      0.5074: real time      0.5074
    CHARGE:  cpu time      0.1171: real time      0.1171
    --------------------------------------------
      LOOP:  cpu time      1.1810: real time      1.1853

 eigenvalue-minimisations  :     0
 total energy-change (2. order) :-0.2796371E-01  (-0.2125634E-01)
 number of electron      44.0000017 magnetization 
 augmentation part       28.3722110 magnetization 

 Free energy of the ion-electron system (eV)
  ---------------------------------------------------
  alpha Z        PSCENC =         1.18414354
  Ewald energy   TEWEN  =      1928.01159838
  -Hartree energ DENC   =     -7003.83201131
  -exchange      EXHF   =         0.00000000
  -V(xc)+E(xc)   XCENC  =       178.84497257
  PAW double counting   =      5075.53054820    -5502.79492883
  entropy T*S    EENTRO =        -0.00000000
  eigenvalues    EBANDS =      -245.68019211
  atomic energy  EATOM  =      5561.24017777
  ---------------------------------------------------
  free energy    TOTEN  =        -7.49569180 eV

  energy without entropy =       -7.49569180  energy(sigma->0) =       -7.49569180


--------------------------------------------------------------------------------------------------------




--------------------------------------- Iteration      1(  12)  ---------------------------------------


    POTLOK:  cpu time      0.1215: real time      0.1215
    SETDIJ:  cpu time      0.1773: real time      0.1773
    TRIAL :  cpu time      0.2518: real time      0.2519
    CORREC:  cpu time      0.5048: real time      0.5053
    CHARGE:  cpu time      0.1174: real time      0.1174
    --------------------------------------------
      LOOP:  cpu time      1.1765: real time      1.1811

 eigenvalue-minimisations  :     0
 total energy-change (2. order) :-0.2133120E-01  (-0.5222044E-02)
 number of electron      44.0000017 magnetization 
 augmentation part       28.3593083 magnetization 

 Free energy of the ion-electron system (eV)
  ---------------------------------------------------
  alpha Z        PSCENC =         1.18414354
  Ewald energy   TEWEN  =      1928.01159838
  -Hartree energ DENC   =     -7005.99321254
  -exchange      EXHF   =         0.00000000
  -V(xc)+E(xc)   XCENC  =       178.95463216
  PAW double counting   =      5074.75129023    -5502.48049438
  entropy T*S    EENTRO =        -0.00000000
  eigenvalues    EBANDS =      -243.18515816
  atomic energy  EATOM  =      5561.24017777
  ---------------------------------------------------
  free energy    TOTEN  =        -7.51702300 eV

  energy without entropy =       -7.51702300  energy(sigma->0) =       -7.51702300


--------------------------------------------------------------------------------------------------------




--------------------------------------- Iteration      1(  13)  ---------------------------------------


    POTLOK:  cpu time      0.1214: real time      0.1214
    SETDIJ:  cpu time      0.1803: real time      0.1803
    TRIAL :  cpu time      0.2512: real time      0.2512
    CORREC:  cpu time      0.5038: real time      0.5038
    CHARGE:  cpu time      0.1178: real time      0.1178
    --------------------------------------------
      LOOP:  cpu time      1.1814: real time      1.1817

 eigenvalue-minimisations  :     0
 total energy-change (2. order) :-0.5225474E-02  (-0.2997096E-02)
 number of electron      44.0000017 magnetization 
 augmentation part       28.3663626 magnetization 

 Free energy of the ion-electron system (eV)
  ---------------------------------------------------
  alpha Z        PSCENC =         1.18414354
  Ewald energy   TEWEN  =      1928.01159838
  -Hartree energ DENC   =     -7003.56770021
  -exchange      EXHF   =         0.00000000
  -V(xc)+E(xc)   XCENC  =       178.86791141
  PAW double counting   =      5072.56834826    -5499.61800982
  entropy T*S    EENTRO =        -0.00000000
  eigenvalues    EBANDS =      -246.20871781
  atomic energy  EATOM  =      5561.24017777
  ---------------------------------------------------
  free energy    TOTEN  =        -7.52224847 eV

  energy without entropy =       -7.52224847  energy(sigma->0) =       -7.52224847


--------------------------------------------------------------------------------------------------------




--------------------------------------- Iteration      1(  14)  ---------------------------------------


    POTLOK:  cpu time      0.1222: real time      0.1222
    SETDIJ:  cpu time      0.1793: real time      0.1793
    TRIAL :  cpu time      0.2523: real time      0.2524
    CORREC:  cpu time      0.5029: real time      0.5029
    CHARGE:  cpu time      0.1187: real time      0.1187
    --------------------------------------------
      LOOP:  cpu time      1.1781: real time      1.1830

 eigenvalue-minimisations  :     0
 total energy-change (2. order) :-0.2998879E-02  (-0.6600920E-03)
 number of electron      44.0000017 magnetization 
 augmentation part       28.3685559 magnetization 

 Free energy of the ion-electron system (eV)
  ---------------------------------------------------
  alpha Z        PSCENC =         1.18414354
  Ewald energy   TEWEN  =      1928.01159838
  -Hartree energ DENC   =     -7003.69293803
  -exchange      EXHF   =         0.00000000
  -V(xc)+E(xc)   XCENC  =       178.88783126
  PAW double counting   =      5072.17953966    -5499.45164090
  entropy T*S    EENTRO =        -0.00000000
  eigenvalues    EBANDS =      -245.88395903
  atomic energy  EATOM  =      5561.24017777
  ---------------------------------------------------
  free energy    TOTEN  =        -7.52524735 eV

  energy without entropy =       -7.52524735  energy(sigma->0) =       -7.52524735


--------------------------------------------------------------------------------------------------------




--------------------------------------- Iteration      1(  15)  ---------------------------------------


    POTLOK:  cpu time      0.1186: real time      0.1186
    SETDIJ:  cpu time      0.1795: real time      0.1795
    TRIAL :  cpu time      0.2523: real time      0.2523
    CORREC:  cpu time      0.5014: real time      0.5014
    CHARGE:  cpu time      0.1173: real time      0.1173
    --------------------------------------------
      LOOP:  cpu time      1.1720: real time      1.1768

 eigenvalue-minimisations  :     0
 total energy-change (2. order) :-0.6588937E-03  (-0.2690968E-03)
 number of electron      44.0000017 magnetization 
 augmentation part       28.3641597 magnetization 

 Free energy of the ion-electron system (eV)
  ---------------------------------------------------
  alpha Z        PSCENC =         1.18414354
  Ewald energy   TEWEN  =      1928.01159838
  -Hartree energ DENC   =     -7003.92168887
  -exchange      EXHF   =         0.00000000
  -V(xc)+E(xc)   XCENC  =       178.89589053
  PAW double counting   =      5072.30615354    -5499.63070508
  entropy T*S    EENTRO =        -0.00000000
  eigenvalues    EBANDS =      -245.61147606
  atomic energy  EATOM  =      5561.24017777
  ---------------------------------------------------
  free energy    TOTEN  =        -7.52590624 eV

  energy without entropy =       -7.52590624  energy(sigma->0) =       -7.52590624


--------------------------------------------------------------------------------------------------------




--------------------------------------- Iteration      1(  16)  ---------------------------------------


    POTLOK:  cpu time      0.1198: real time      0.1198
    SETDIJ:  cpu time      0.1777: real time      0.1777
    TRIAL :  cpu time      0.2519: real time      0.2519
    CORREC:  cpu time      0.5002: real time      0.5002
    CHARGE:  cpu time      0.1168: real time      0.1168
    --------------------------------------------
      LOOP:  cpu time      1.1694: real time      1.1739

 eigenvalue-minimisations  :     0
 total energy-change (2. order) :-0.2690055E-03  (-0.1282797E-03)
 number of electron      44.0000017 magnetization 
 augmentation part       28.3685309 magnetization 

 Free energy of the ion-electron system (eV)
  ---------------------------------------------------
  alpha Z        PSCENC =         1.18414354
  Ewald energy   TEWEN  =      1928.01159838
  -Hartree energ DENC   =     -7003.28859353
  -exchange      EXHF   =         0.00000000
  -V(xc)+E(xc)   XCENC  =       178.87177183
  PAW double counting   =      5072.10641891    -5499.23783356
  entropy T*S    EENTRO =        -0.00000000
  eigenvalues    EBANDS =      -246.41385860
  atomic energy  EATOM  =      5561.24017777
  ---------------------------------------------------
  free energy    TOTEN  =        -7.52617525 eV

  energy without entropy =       -7.52617525  energy(sigma->0) =       -7.52617525


--------------------------------------------------------------------------------------------------------




--------------------------------------- Iteration      1(  17)  ---------------------------------------


    POTLOK:  cpu time      0.1186: real time      0.1186
    SETDIJ:  cpu time      0.1790: real time      0.1790
    TRIAL :  cpu time      0.2519: real time      0.2519
    CORREC:  cpu time      0.5009: real time      0.5009
    CHARGE:  cpu time      0.1197: real time      0.1197
    --------------------------------------------
      LOOP:  cpu time      1.1733: real time      1.1781

 eigenvalue-minimisations  :     0
 total energy-change (2. order) :-0.1279744E-03  (-0.3544605E-04)
 number of electron      44.0000017 magnetization 
 augmentation part       28.3664409 magnetization 

 Free energy of the ion-electron system (eV)
  ---------------------------------------------------
  alpha Z        PSCENC =         1.18414354
  Ewald energy   TEWEN  =      1928.01159838
  -Hartree energ DENC   =     -7003.91661990
  -exchange      EXHF   =         0.00000000
  -V(xc)+E(xc)   XCENC  =       178.89593160
  PAW double counting   =      5072.65160472    -5499.93463495
  entropy T*S    EENTRO =        -0.00000000
  eigenvalues    EBANDS =      -245.65850439
  atomic energy  EATOM  =      5561.24017777
  ---------------------------------------------------
  free energy    TOTEN  =        -7.52630322 eV

  energy without entropy =       -7.52630322  energy(sigma->0) =       -7.52630322


--------------------------------------------------------------------------------------------------------




--------------------------------------- Iteration      1(  18)  ---------------------------------------


    POTLOK:  cpu time      0.1183: real time      0.1183
    SETDIJ:  cpu time      0.1807: real time      0.1807
    TRIAL :  cpu time      0.2523: real time      0.2523
    CORREC:  cpu time      0.5022: real time      0.5022
    CHARGE:  cpu time      0.1181: real time      0.1181
    --------------------------------------------
      LOOP:  cpu time      1.1785: real time      1.1788

 eigenvalue-minimisations  :     0
 total energy-change (2. order) :-0.3532749E-04  (-0.1202263E-04)
 number of electron      44.0000017 magnetization 
 augmentation part       28.3679640 magnetization 

 Free energy of the ion-electron system (eV)
  ---------------------------------------------------
  alpha Z        PSCENC =         1.18414354
  Ewald energy   TEWEN  =      1928.01159838
  -Hartree energ DENC   =     -7003.61469007
  -exchange      EXHF   =         0.00000000
  -V(xc)+E(xc)   XCENC  =       178.88425844
  PAW double counting   =      5072.53297689    -5499.73240420
  entropy T*S    EENTRO =        -0.00000000
  eigenvalues    EBANDS =      -246.03239931
  atomic energy  EATOM  =      5561.24017777
  ---------------------------------------------------
  free energy    TOTEN  =        -7.52633855 eV

  energy without entropy =       -7.52633855  energy(sigma->0) =       -7.52633855


--------------------------------------------------------------------------------------------------------




--------------------------------------- Iteration      1(  19)  ---------------------------------------


    POTLOK:  cpu time      0.1189: real time      0.1189
    SETDIJ:  cpu time      0.1806: real time      0.1806
    TRIAL :  cpu time      0.2524: real time      0.2524
    CORREC:  cpu time      0.5023: real time      0.5023
    CHARGE:  cpu time      0.1167: real time      0.1167
    --------------------------------------------
      LOOP:  cpu time      1.1729: real time      1.1780

 eigenvalue-minimisations  :     0
 total energy-change (2. order) :-0.1195725E-04  (-0.5365910E-05)
 number of electron      44.0000017 magnetization 
 augmentation part       28.3672910 magnetization 

 Free energy of the ion-electron system (eV)
  ---------------------------------------------------
  alpha Z        PSCENC =         1.18414354
  Ewald energy   TEWEN  =      1928.01159838
  -Hartree energ DENC   =     -7003.82721223
  -exchange      EXHF   =         0.00000000
  -V(xc)+E(xc)   XCENC  =       178.89262905
  PAW double counting   =      5072.71671724    -5499.97513803
  entropy T*S    EENTRO =        -0.00000000
  eigenvalues    EBANDS =      -245.76926622
  atomic energy  EATOM  =      5561.24017777
  ---------------------------------------------------
  free energy    TOTEN  =        -7.52635051 eV

  energy without entropy =       -7.52635051  energy(sigma->0) =       -7.52635051


--------------------------------------------------------------------------------------------------------




--------------------------------------- Iteration      1(  20)  ---------------------------------------


    POTLOK:  cpu time      0.1179: real time      0.1179
    SETDIJ:  cpu time      0.1803: real time      0.1803
    TRIAL :  cpu time      0.2510: real time      0.2510
    CORREC:  cpu time      0.5001: real time      0.5001
    CHARGE:  cpu time      0.1169: real time      0.1169
    --------------------------------------------
      LOOP:  cpu time      1.1700: real time      1.1735

 eigenvalue-minimisations  :     0
 total energy-change (2. order) :-0.5265233E-05  (-0.2007700E-05)
 number of electron      44.0000017 magnetization 
 augmentation part       28.3675102 magnetization 

 Free energy of the ion-electron system (eV)
  ---------------------------------------------------
  alpha Z        PSCENC =         1.18414354
  Ewald energy   TEWEN  =      1928.01159838
  -Hartree energ DENC   =     -7003.73627742
  -exchange      EXHF   =         0.00000000
  -V(xc)+E(xc)   XCENC  =       178.88891618
  PAW double counting   =      5072.70751621    -5499.94365121
  entropy T*S    EENTRO =        -0.00000000
  eigenvalues    EBANDS =      -245.87877923
  atomic energy  EATOM  =      5561.24017777
  ---------------------------------------------------
  free energy    TOTEN  =        -7.52635577 eV

  energy without entropy =       -7.52635577  energy(sigma->0) =       -7.52635577


--------------------------------------------------------------------------------------------------------




--------------------------------------- Iteration      1(  21)  ---------------------------------------


    POTLOK:  cpu time      0.1178: real time      0.1178
    SETDIJ:  cpu time      0.1821: real time      0.1821
    TRIAL :  cpu time      0.2512: real time      0.2512
    CORREC:  cpu time      0.5026: real time      0.5031
    CHARGE:  cpu time      0.1172: real time      0.1172
    --------------------------------------------
      LOOP:  cpu time      1.1780: real time      1.1788

 eigenvalue-minimisations  :     0
 total energy-change (2. order) :-0.2000075E-05  (-0.5835453E-06)
 number of electron      44.0000017 magnetization 
 augmentation part       28.3677315 magnetization 

 Free energy of the ion-electron system (eV)
  ---------------------------------------------------
  alpha Z        PSCENC =         1.18414354
  Ewald energy   TEWEN  =      1928.01159838
  -Hartree energ DENC   =     -7003.76564829
  -exchange      EXHF   =         0.00000000
  -V(xc)+E(xc)   XCENC  =       178.89014039
  PAW double counting   =      5072.75717345    -5500.00252202
  entropy T*S    EENTRO =        -0.00000000
  eigenvalues    EBANDS =      -245.84142098
  atomic energy  EATOM  =      5561.24017777
  ---------------------------------------------------
  free energy    TOTEN  =        -7.52635777 eV

  energy without entropy =       -7.52635777  energy(sigma->0) =       -7.52635777


--------------------------------------------------------------------------------------------------------




--------------------------------------- Iteration      1(  22)  ---------------------------------------


    POTLOK:  cpu time      0.1176: real time      0.1176
    SETDIJ:  cpu time      0.1799: real time      0.1799
    TRIAL :  cpu time      0.2517: real time      0.2518
    CORREC:  cpu time      0.5020: real time      0.5020
    EDDIAG:  cpu time      0.1139: real time      0.1139
    CHARGE:  cpu time      0.1173: real time      0.1173
    --------------------------------------------
      LOOP:  cpu time      1.2872: real time      1.2896

 eigenvalue-minimisations  :     0
 total energy-change (2. order) :-0.5915654E-06  (-0.3116250E-06)
 number of electron      44.0000017 magnetization 
 augmentation part       28.3674886 magnetization 

 Free energy of the ion-electron system (eV)
  ---------------------------------------------------
  alpha Z        PSCENC =         1.18414354
  Ewald energy   TEWEN  =      1928.01159838
  -Hartree energ DENC   =     -7003.78296464
  -exchange      EXHF   =         0.00000000
  -V(xc)+E(xc)   XCENC  =       178.89116419
  PAW double counting   =      5072.77785224    -5500.03223631
  entropy T*S    EENTRO =        -0.00000000
  eigenvalues    EBANDS =      -245.81609353
  atomic energy  EATOM  =      5561.24017777
  ---------------------------------------------------
  free energy    TOTEN  =        -7.52635836 eV

  energy without entropy =       -7.52635836  energy(sigma->0) =       -7.52635836


--------------------------------------------------------------------------------------------------------


  average scaling for gradient   1.2452


 average (electrostatic) potential at core
  the test charge radii are     0.9430
  (the norm of the test charge is              1.0000)
       1 -73.9943       2 -73.0903       3 -73.9747       4 -73.9914



 E-fermi :  -4.2730     XC(G=0):  -0.2139     alpha+bet : -0.0642

 Fermi energy:        -4.2729849897

 k-point     1 :       0.0000    0.0000    0.0000
  band No.  band energies     occupation 
      1      -7.8767      2.00000
      2      -6.6044      2.00000
      3      -6.4096      2.00000
      4      -6.3549      2.00000
      5      -6.2518      2.00000
      6      -5.8718      2.00000
      7      -5.8677      2.00000
      8      -5.8454      2.00000
      9      -5.7601      2.00000
     10      -5.5358      2.00000
     11      -5.5048      2.00000
     12      -5.4829      2.00000
     13      -5.4258      2.00000
     14      -5.3555      2.00000
     15      -5.3300      2.00000
     16      -5.3005      2.00000
     17      -4.8777      2.00000
     18      -4.7639      2.00000
     19      -4.6769      2.00000
     20      -4.6691      2.00000
     21      -4.6489      2.00000
     22      -4.5208      2.00000
     23      -3.7458      0.00000
     24      -2.5065      0.00000
     25      -1.7895      0.00000
     26      -0.9821      0.00000
     27      -0.8829      0.00000
     28      -0.4548      0.00000
     29      -0.2268      0.00000
     30       0.0216      0.00000
     31       0.2103      0.00000
     32       0.3006      0.00000
     33       0.3203      0.00000
     34       0.3404      0.00000
     35       0.3412      0.00000
     36       0.3612      0.00000
     37       0.3856      0.00000
     38       0.5467      0.00000
     39       0.6251      0.00000
     40       0.6435      0.00000
     41       0.6633      0.00000
     42       0.6645      0.00000
     43       0.6654      0.00000
     44       0.6660      0.00000
     45       0.6684      0.00000
     46       0.7159      0.00000
     47       0.7401      0.00000
     48       0.7619      0.00000
     49       0.7816      0.00000
     50       0.8459      0.00000
     51       0.9554      0.00000
     52       0.9616      0.00000
     53       1.0000      0.00000
     54       1.0116      0.00000
     55       1.0366      0.00000
     56       1.0415      0.00000
     57       1.0610      0.00000
     58       1.0953      0.00000
     59       1.1694      0.00000
     60       1.1900      0.00000
     61       1.2426      0.00000
     62       1.3129      0.00000
     63       1.3823      0.00000
     64       1.3916      0.00000
     65       1.4407      0.00000
     66       1.4776      0.00000
     67       1.5012      0.00000
     68       1.5202      0.00000
     69       1.5513      0.00000
     70       1.5794      0.00000
     71       1.5850      0.00000
     72       1.5889      0.00000
     73       1.6118      0.00000
     74       1.6129      0.00000
     75       1.6175      0.00000
     76       1.6351      0.00000
     77       1.6488      0.00000
     78       1.6641      0.00000
     79       1.6685      0.00000
     80       1.6866      0.00000
     81       1.6923      0.00000
     82       1.6925      0.00000
     83       1.6975      0.00000
     84       1.6982      0.00000
     85       1.7077      0.00000
     86       1.7485      0.00000
     87       1.7797      0.00000
     88       1.7962      0.00000
     89       1.8012      0.00000
     90       1.8723      0.00000
     91       1.8906      0.00000
     92       1.9034      0.00000
     93       1.9108      0.00000
     94       1.9178      0.00000
     95       1.9196      0.00000
     96       1.9215      0.00000


--------------------------------------------------------------------------------------------------------


 soft charge-density along one line, spin component           1
         0         1         2         3         4         5         6         7         8         9
 total charge-density along one line

 pseudopotential strength for first ion, spin component:           1
-10.522   0.000   0.000   0.022   0.000   0.977  -0.000  -0.000
  0.000 -10.570   0.018  -0.000  -0.022  -0.000   1.014  -0.013
  0.000   0.018 -10.544   0.000  -0.033  -0.000  -0.013   0.995
  0.022  -0.000   0.000 -10.508   0.000  -0.016   0.000  -0.000
  0.000  -0.022  -0.033   0.000 -10.528  -0.000   0.016   0.025
  0.977  -0.000  -0.000  -0.016  -0.000   6.344   0.000   0.000
 -0.000   1.014  -0.013   0.000   0.016   0.000   6.319   0.008
 -0.000  -0.013   0.995  -0.000   0.025   0.000   0.008   6.331
 -0.016   0.000  -0.000   0.967  -0.000   0.010  -0.000   0.000
 -0.000   0.016   0.025  -0.000   0.981  -0.000  -0.010  -0.016
  0.000  -0.006   0.002  -0.000  -0.009   0.000  -0.001  -0.002
  0.000  -0.010   0.004  -0.000  -0.017   0.000  -0.003  -0.004
  0.000  -0.010  -0.019   0.000  -0.032  -0.000   0.003   0.006
  0.000   0.032  -0.011   0.000  -0.000  -0.000  -0.011   0.003
  0.033   0.000  -0.000  -0.010   0.000  -0.011  -0.000   0.000
  0.000  -0.009  -0.021   0.000  -0.034  -0.000   0.002   0.004
  0.000   0.034  -0.011   0.000  -0.000  -0.000  -0.006   0.001
  0.036   0.000  -0.000  -0.010   0.000  -0.007  -0.000   0.000
 total augmentation occupancy for first ion, spin component:           1
  1.981   0.000  -0.000   0.003  -0.000  -0.010  -0.000   0.000  -0.004  -0.000  -0.000  -0.000  -0.000   0.000  -0.059   0.000
  0.000   1.966   0.005  -0.000  -0.002  -0.000   0.004  -0.009   0.000   0.004   0.027   0.003   0.036  -0.093   0.000  -0.018
 -0.000   0.005   1.975   0.000  -0.010   0.000  -0.009  -0.002  -0.000   0.008   0.045  -0.005   0.035   0.054  -0.000  -0.028
  0.003  -0.000   0.000   1.985   0.000  -0.004   0.000  -0.000  -0.014  -0.000   0.000   0.000   0.000  -0.000   0.025  -0.000
 -0.000  -0.002  -0.010   0.000   1.973  -0.000   0.004   0.008  -0.000  -0.004   0.105   0.003   0.092  -0.006  -0.000  -0.050
 -0.010  -0.000   0.000  -0.004  -0.000   0.002  -0.000  -0.000  -0.001  -0.000   0.000  -0.000  -0.000   0.000  -0.005   0.000
 -0.000   0.004  -0.009   0.000   0.004  -0.000   0.006  -0.002   0.000   0.002  -0.043   0.003   0.009  -0.013   0.000  -0.001
  0.000  -0.009  -0.002  -0.000   0.008  -0.000  -0.002   0.005  -0.000   0.002   0.007  -0.000   0.006   0.012  -0.000  -0.000
 -0.004   0.000  -0.000  -0.014  -0.000  -0.001   0.000  -0.000   0.002  -0.000  -0.000   0.000   0.000  -0.000   0.004  -0.000
 -0.000   0.004   0.008  -0.000  -0.004  -0.000   0.002   0.002  -0.000   0.005  -0.061   0.004   0.017  -0.002  -0.000  -0.002
 -0.000   0.027   0.045   0.000   0.105   0.000  -0.043   0.007  -0.000  -0.061   1.443  -0.074  -0.249   0.120  -0.000   0.028
 -0.000   0.003  -0.005   0.000   0.003  -0.000   0.003  -0.000   0.000   0.004  -0.074   0.006   0.017  -0.011   0.000  -0.002
 -0.000   0.036   0.035   0.000   0.092  -0.000   0.009   0.006   0.000   0.017  -0.249   0.017   0.072  -0.014   0.000  -0.010
  0.000  -0.093   0.054  -0.000  -0.006   0.000  -0.013   0.012  -0.000  -0.002   0.120  -0.011  -0.014   0.057  -0.000   0.003
 -0.059   0.000  -0.000   0.025  -0.000  -0.005   0.000  -0.000   0.004  -0.000  -0.000   0.000   0.000  -0.000   0.017  -0.000
  0.000  -0.018  -0.028  -0.000  -0.050   0.000  -0.001  -0.000  -0.000  -0.002   0.028  -0.002  -0.010   0.003  -0.000   0.003
 -0.000   0.050  -0.022   0.000  -0.000  -0.000   0.001  -0.001   0.000   0.001  -0.014   0.001   0.003  -0.006   0.000  -0.000
  0.049  -0.000  -0.000  -0.018   0.000   0.000  -0.000   0.000  -0.000  -0.000   0.000  -0.000  -0.000   0.000  -0.002   0.000


------------------------ aborting loop because EDIFF is reached ----------------------------------------


    FORLOC:  cpu time      0.0028: real time      0.0028
    FORNL :  cpu time      0.1330: real time      0.1331
    STRESS:  cpu time      0.3940: real time      0.3941
    FORCOR:  cpu time      0.0811: real time      0.0811
    OFIELD:  cpu time      0.0003: real time      0.0003
    FORVDW:  cpu time      0.0018: real time      0.0019

  FORCE on cell =-STRESS in cart. coord.  units (eV):
  Direction    XX          YY          ZZ          XY          YZ          ZX
  --------------------------------------------------------------------------------------
  Alpha Z     1.18414     1.18414     1.18414
  Ewald    -597.99933   588.49697  1937.51391     0.07965     0.75387    -2.28347
  Hartree  1336.39151  2262.32778  3405.02233     0.06118     0.67727    -1.85414
  E(xc)    -252.39399  -252.01083  -251.79359     0.00003     0.00081    -0.00055
  Local   -1128.68317 -3225.34891 -5713.35306    -0.13968    -1.43893     4.12174
  n-local  -102.64613  -105.59703  -102.41228    -0.00001    -0.01398    -0.00183
  augment   375.41602   367.42054   364.59351    -0.00031     0.00158     0.00955
  Kinetic   368.69081   360.60729   358.06743    -0.00057    -0.00771     0.00900
  Fock        0.00000     0.00000     0.00000     0.00000     0.00000     0.00000
  vdW        -0.00014    -0.00201    -0.01787    -0.00000    -0.00001     0.00001
  -------------------------------------------------------------------------------------
  Total      -0.04028    -2.92205    -1.19547     0.00029    -0.02710     0.00030
  in kB      -0.00653    -0.47377    -0.19383     0.00005    -0.00439     0.00005
  external pressure =       -0.22 kB  Pullay stress =        0.00 kB


 VOLUME and BASIS-vectors are now :
 -----------------------------------------------------------------------------
  energy-cutoff  :      520.00
  volume of cell :     9881.61
      direct lattice vectors                 reciprocal lattice vectors
    21.138852197  0.000000000  0.000000000     0.047306258  0.000000000  0.000000000
     0.000000000 21.138852197  0.000000000     0.000000000  0.047306258  0.000000000
     0.000000000  0.000000000 22.113885220     0.000000000  0.000000000  0.045220457

  length of vectors
    21.138852197 21.138852197 22.113885220     0.047306258  0.047306258  0.045220457


 FORCES acting on ions:
    Electron-Ion                     Ewald-Force                    Non-Local-Force
 -----------------------------------------------------------------------------------------------
   -.657E+00 -.489E+03 0.353E+03   0.640E+00 0.475E+03 -.348E+03   0.167E-01 0.132E+02 -.517E+01
   -.794E-01 -.270E+00 -.519E+03   0.676E-01 0.246E+00 0.506E+03   0.117E-01 0.258E-01 0.127E+02
   0.131E+01 0.392E+01 -.191E+03   -.129E+01 -.383E+01 0.193E+03   -.199E-01 -.924E-01 -.199E+01
   -.599E+00 0.485E+03 0.357E+03   0.584E+00 -.471E+03 -.351E+03   0.151E-01 -.131E+02 -.529E+01
 -----------------------------------------------------------------------------------------------
   -.206E-01 -.105E-01 -.239E+00   0.000E+00 0.000E+00 0.000E+00   0.236E-01 0.105E-01 0.242E+00


 POSITION                                       TOTAL-FORCE (eV/Angst)
 -----------------------------------------------------------------------------------
      8.45129     11.78922     13.22011        -0.000648     -1.171739      0.085443
      8.44827     10.55171     17.46787        -0.000995      0.001231     -0.346555
      8.44707     10.54754     15.21331         0.002278     -0.002393      0.153452
      8.45116      9.32335     13.20450        -0.000635      1.172901      0.107660
 -----------------------------------------------------------------------------------
    total drift:                                0.002973     -0.000001      0.002299


--------------------------------------------------------------------------------------------------------



  FREE ENERGIE OF THE ION-ELECTRON SYSTEM (eV)
  ---------------------------------------------------
  free  energy   TOTEN  =        -7.57721171 eV

  energy  without entropy=       -7.57721171  energy(sigma->0) =       -7.57721171



--------------------------------------------------------------------------------------------------------


    POTLOK:  cpu time      0.2972: real time      0.2972


--------------------------------------------------------------------------------------------------------


     LOOP+:  cpu time     26.8680: real time     26.9404
    4ORBIT:  cpu time      0.0000: real time      0.0000

 total amount of memory used by VASP MPI-rank0   118515. kBytes
=======================================================================

   base      :      30000. kBytes
   nonlr-proj:       1540. kBytes
   fftplans  :      35474. kBytes
   grid      :      48291. kBytes
   one-center:         15. kBytes
   wavefun   :       3195. kBytes

  
  
 General timing and accounting informations for this job:
 ========================================================
  
                  Total CPU time used (sec):       50.332
                            User time (sec):       49.071
                          System time (sec):        1.261
                         Elapsed time (sec):       51.945
  
                   Maximum memory used (kb):      228704.
                   Average memory used (kb):          N/A
  
                          Minor page faults:        28425
                          Major page faults:            0
                 Voluntary context switches:         9962
