 vasp.6.3.0 20Jan22 (build Apr  1 2022 16:44:48) complex                         
 executed on        HPECrayEX_GCC date 2023.01.17  09:53:57
 running 2048 mpi-ranks, with    1 threads/rank
 distrk:  each k-point on 1024 cores,    2 groups
 distr:  one band on NCORE=   4 cores,  256 groups


--------------------------------------------------------------------------------------------------------


 INCAR:
   SYSTEM = MgO-rocksalt
   ISMEAR = 0
   SIGMA = 0.05
   EDIFF = 1E-6
   ALGO = ALL
   ISTART = 0
   IBRION = -1
   NSW = 0
   ISYM = 2
   DIPOL = 0.5 0.5 0.5
   IDIPOL = 3
   LDIPOL = .TRUE.
   IVDW = 13
   VDW_S8 = 2.0293
   VDW_A1 = 0.4087
   VDW_A2 = 4.5381
   ENCUT = 520
   PREC = Accurate
   LASPH = .TRUE.
   LREAL = Auto
   ISPIN = 1
   NELM = 200
   NELMIN = 8
   NCORE = 4
   KPAR = 2
   LWAVE = .FALSE.
   LCHARG = .FALSE.

 POTCAR:    PAW_PBE Cu 22Jun2005                  
 POTCAR:    PAW_PBE Mg_pv 13Apr2007               
 POTCAR:    PAW_PBE O 08Apr2002                   
 POTCAR:    PAW_PBE Cu 22Jun2005                  
   SHA256 =  0e71e558f37a4e8407882b4609ceaae59938afaad9ced71dfe8490308a0ab630 Cu/POTCAR             
   COPYR  = (c) Copyright 22Jun2005 Georg Kresse                                                    
   COPYR  = This file is part of the software VASP. Any use, copying, and all other rights are regul
   COPYR  = If you do not have a valid VASP license, you may not use, copy or distribute this file. 
   VRHFIN =Cu: d10 p1                                                                               
   LEXCH  = PE                                                                                      
   EATOM  =  1390.9808 eV,  102.2342 Ry                                                             
                                                                                                    
   TITEL  = PAW_PBE Cu 22Jun2005                                                                    
   LULTRA =        F    use ultrasoft PP ?                                                          
   IUNSCR =        1    unscreen: 0-lin 1-nonlin 2-no                                               
   RPACOR =    2.000    partial core radius                                                         
   POMASS =   63.546; ZVAL   =   11.000    mass and valenz                                          
   RCORE  =    2.300    outmost cutoff radius                                                       
   RWIGS  =    2.200; RWIGS  =    1.164    wigner-seitz radius (au A)                               
   ENMAX  =  295.446; ENMIN  =  221.585 eV                                                          
   ICORE  =        3    local potential                                                             
   LCOR   =        T    correct aug charges                                                         
   LPAW   =        T    paw PP                                                                      
   EAUG   =  586.980                                                                                
   DEXC   =    0.000                                                                                
   RMAX   =    2.344    core radius for proj-oper                                                   
   RAUG   =    1.300    factor for augmentation sphere                                              
   RDEP   =    2.302    radius for radial grids                                                     
   RDEPT  =    1.771    core radius for aug-charge                                                  
                                                                                                    
   Atomic configuration                                                                             
    9 entries                                                                                       
     n  l   j            E        occ.                                                              
     1  0  0.50     -8850.2468   2.0000                                                             
     2  0  0.50     -1062.3498   2.0000                                                             
     2  1  1.50      -916.8226   6.0000                                                             
     3  0  0.50      -114.6929   2.0000                                                             
     3  1  1.50       -72.1325   6.0000                                                             
     3  2  2.50        -5.0394  10.0000                                                             
     4  0  0.50        -4.6097   1.0000                                                             
     4  1  0.50        -4.0817   0.0000                                                             
     4  3  2.50        -1.3606   0.0000                                                             
   Description                                                                                      
     l       E           TYP  RCUT    TYP  RCUT                                                     
     2     -5.0393973     23  2.200                                                                 
     2     10.8846608     23  2.200                                                                 
     0     -4.6097109     23  2.200                                                                 
     0      8.2520465     23  2.200                                                                 
     1     -2.7211652     23  2.200                                                                 
     1     21.7055443     23  2.200                                                                 
     3      2.7211652     23  2.300                                                                 
  local pseudopotential read in
  partial core-charges read in
  partial kinetic energy density read in
  atomic valenz-charges read in
  non local Contribution for L=           2  read in
    real space projection operators read in
  non local Contribution for L=           2  read in
    real space projection operators read in
  non local Contribution for L=           0  read in
    real space projection operators read in
  non local Contribution for L=           0  read in
    real space projection operators read in
  non local Contribution for L=           1  read in
    real space projection operators read in
  non local Contribution for L=           1  read in
    real space projection operators read in
    PAW grid and wavefunctions read in

   number of l-projection  operators is LMAX  =           6
   number of lm-projection operators is LMMAX =          18

 POTCAR:    PAW_PBE Mg_pv 13Apr2007               
   SHA256 =  f474ac0dd33840b9ae76c01d57fea79fdf77cdfbb07d5ade72c65f83c709b62b Mg_pv/POTCAR          
   COPYR  = (c) Copyright 13Apr2007 Georg Kresse                                                    
   COPYR  = This file is part of the software VASP. Any use, copying, and all other rights are regul
   COPYR  = If you do not have a valid VASP license, you may not use, copy or distribute this file. 
   VRHFIN =Mg: p6s2                                                                                 
   LEXCH  = PE                                                                                      
   EATOM  =  1056.7344 eV,   77.6678 Ry                                                             
                                                                                                    
   TITEL  = PAW_PBE Mg_pv 13Apr2007                                                                 
   LULTRA =        F    use ultrasoft PP ?                                                          
   IUNSCR =        1    unscreen: 0-lin 1-nonlin 2-no                                               
   RPACOR =    1.500    partial core radius                                                         
   POMASS =   24.305; ZVAL   =    8.000    mass and valenz                                          
   RCORE  =    2.000    outmost cutoff radius                                                       
   RWIGS  =    2.000; RWIGS  =    1.058    wigner-seitz radius (au A)                               
   ENMAX  =  403.929; ENMIN  =  302.947 eV                                                          
   RCLOC  =    1.506    cutoff for local pot                                                        
   LCOR   =        T    correct aug charges                                                         
   LPAW   =        T    paw PP                                                                      
   EAUG   =  758.780                                                                                
   DEXC   =    0.000                                                                                
   RMAX   =    2.045    core radius for proj-oper                                                   
   RAUG   =    1.300    factor for augmentation sphere                                              
   RDEP   =    2.025    radius for radial grids                                                     
   RDEPT  =    1.557    core radius for aug-charge                                                  
                                                                                                    
   Atomic configuration                                                                             
    5 entries                                                                                       
     n  l   j            E        occ.                                                              
     1  0  0.50     -1259.6230   2.0000                                                             
     2  0  0.50       -79.8442   2.0000                                                             
     2  1  1.50       -46.6121   6.0000                                                             
     3  0  0.50        -4.7055   2.0000                                                             
     3  2  1.50        -1.3606   0.0000                                                             
   Description                                                                                      
     l       E           TYP  RCUT    TYP  RCUT                                                     
     1    -46.6121073     23  1.600                                                                 
     1      2.7211652     23  1.600                                                                 
     0     -4.7054661     23  2.000                                                                 
     0     61.2262170     23  2.000                                                                 
     2     -1.3605826     23  2.000                                                                 
  local pseudopotential read in
  partial core-charges read in
  partial kinetic energy density read in
  atomic valenz-charges read in
  non local Contribution for L=           1  read in
    real space projection operators read in
  non local Contribution for L=           1  read in
    real space projection operators read in
  non local Contribution for L=           0  read in
    real space projection operators read in
  non local Contribution for L=           0  read in
    real space projection operators read in
  non local Contribution for L=           2  read in
    real space projection operators read in
    PAW grid and wavefunctions read in

   number of l-projection  operators is LMAX  =           5
   number of lm-projection operators is LMMAX =          13

 POTCAR:    PAW_PBE O 08Apr2002                   
   SHA256 =  818f92134a0a090dccd8ba1447fa70422a3b330e708bb4f08108d8ae51209ddf O/POTCAR              
   COPYR  = (c) Copyright 08Apr2002 Georg Kresse                                                    
   COPYR  = This file is part of the software VASP. Any use, copying, and all other rights are regul
   COPYR  = If you do not have a valid VASP license, you may not use, copy or distribute this file. 
   VRHFIN =O: s2p4                                                                                  
   LEXCH  = PE                                                                                      
   EATOM  =   432.3788 eV,   31.7789 Ry                                                             
                                                                                                    
   TITEL  = PAW_PBE O 08Apr2002                                                                     
   LULTRA =        F    use ultrasoft PP ?                                                          
   IUNSCR =        1    unscreen: 0-lin 1-nonlin 2-no                                               
   RPACOR =    1.200    partial core radius                                                         
   POMASS =   16.000; ZVAL   =    6.000    mass and valenz                                          
   RCORE  =    1.520    outmost cutoff radius                                                       
   RWIGS  =    1.550; RWIGS  =    0.820    wigner-seitz radius (au A)                               
   ENMAX  =  400.000; ENMIN  =  300.000 eV                                                          
   ICORE  =        2    local potential                                                             
   LCOR   =        T    correct aug charges                                                         
   LPAW   =        T    paw PP                                                                      
   EAUG   =  605.392                                                                                
   DEXC   =    0.000                                                                                
   RMAX   =    1.553    core radius for proj-oper                                                   
   RAUG   =    1.300    factor for augmentation sphere                                              
   RDEP   =    1.550    radius for radial grids                                                     
   RDEPT  =    1.329    core radius for aug-charge                                                  
                                                                                                    
   Atomic configuration                                                                             
    4 entries                                                                                       
     n  l   j            E        occ.                                                              
     1  0  0.50      -514.6923   2.0000                                                             
     2  0  0.50       -23.9615   2.0000                                                             
     2  1  0.50        -9.0305   4.0000                                                             
     3  2  1.50        -9.5241   0.0000                                                             
   Description                                                                                      
     l       E           TYP  RCUT    TYP  RCUT                                                     
     0    -23.9615318     23  1.200                                                                 
     0     -9.5240782     23  1.200                                                                 
     1     -9.0304911     23  1.520                                                                 
     1      8.1634956     23  1.520                                                                 
     2     -9.5240782      7  1.500                                                                 
  local pseudopotential read in
  partial core-charges read in
  partial kinetic energy density read in
  kinetic energy density of atom read in
  atomic valenz-charges read in
  non local Contribution for L=           0  read in
    real space projection operators read in
  non local Contribution for L=           0  read in
    real space projection operators read in
  non local Contribution for L=           1  read in
    real space projection operators read in
  non local Contribution for L=           1  read in
    real space projection operators read in
    PAW grid and wavefunctions read in

   number of l-projection  operators is LMAX  =           4
   number of lm-projection operators is LMMAX =           8

 Optimization of the real space projectors (new method)

 maximal supplied QI-value         = 16.25
 optimisation between [QCUT,QGAM] = [ 11.54, 23.24] = [ 37.28,151.24] Ry 
 Optimized for a Real-space Cutoff    1.53 Angstroem

   l    n(q)    QCUT    max X(q) W(low)/X(q) W(high)/X(q)  e(spline) 
   2     10    11.539     4.610    0.96E-04    0.13E-03    0.19E-06
   2     10    11.539     8.522    0.16E-03    0.21E-03    0.28E-06
   0     11    11.539    51.609    0.45E-04    0.31E-04    0.11E-06
   0     11    11.539    27.747    0.39E-04    0.29E-04    0.10E-06
   1     10    11.539    20.408    0.70E-05    0.38E-04    0.18E-06
   1     10    11.539    13.425    0.66E-05    0.34E-04    0.17E-06
 Optimization of the real space projectors (new method)

 maximal supplied QI-value         = 18.90
 optimisation between [QCUT,QGAM] = [ 11.53, 23.24] = [ 37.21,151.29] Ry 
 Optimized for a Real-space Cutoff    1.28 Angstroem

   l    n(q)    QCUT    max X(q) W(low)/X(q) W(high)/X(q)  e(spline) 
   1      8    11.527     2.974    0.44E-04    0.56E-04    0.12E-06
   1      8    11.527     4.279    0.12E-03    0.12E-03    0.26E-06
   0      9    11.527    16.381    0.46E-04    0.64E-04    0.78E-07
   0      9    11.527     5.611    0.26E-04    0.43E-04    0.55E-07
   2      8    11.527     4.652    0.22E-03    0.72E-04    0.47E-07
 Optimization of the real space projectors (new method)

 maximal supplied QI-value         = 24.76
 optimisation between [QCUT,QGAM] = [ 11.64, 23.27] = [ 37.91,151.63] Ry 
 Optimized for a Real-space Cutoff    1.14 Angstroem

   l    n(q)    QCUT    max X(q) W(low)/X(q) W(high)/X(q)  e(spline) 
   0      8    11.635    20.381    0.10E-03    0.33E-03    0.24E-06
   0      8    11.635    15.268    0.11E-03    0.35E-03    0.26E-06
   1      7    11.635     5.964    0.24E-03    0.31E-03    0.30E-06
   1      7    11.635     5.382    0.22E-03    0.25E-03    0.26E-06
  PAW_PBE Cu 22Jun2005                  :
 energy of atom  1       EATOM=-1390.9808
 kinetic energy error for atom=    0.0037 (will be added to EATOM!!)
  PAW_PBE Mg_pv 13Apr2007               :
 energy of atom  2       EATOM=-1056.7344
 kinetic energy error for atom=    0.0340 (will be added to EATOM!!)
  PAW_PBE O 08Apr2002                   :
 energy of atom  3       EATOM= -432.3788
 kinetic energy error for atom=    0.0208 (will be added to EATOM!!)


 POSCAR: Cu Mg  O
  positions in direct lattice
  velocities in cartesian coordinates
 -----------------------------------------------------------------------------
|                                                                             |
|           W    W    AA    RRRRR   N    N  II  N    N   GGGG   !!!           |
|           W    W   A  A   R    R  NN   N  II  NN   N  G    G  !!!           |
|           W    W  A    A  R    R  N N  N  II  N N  N  G       !!!           |
|           W WW W  AAAAAA  RRRRR   N  N N  II  N  N N  G  GGG   !            |
|           WW  WW  A    A  R   R   N   NN  II  N   NN  G    G                |
|           W    W  A    A  R    R  N    N  II  N    N   GGGG   !!!           |
|                                                                             |
|     Specifying the vdW parameters                                           |
|     VDW_S8 = 2.029                                                          |
|     VDW_A1 = 0.409                                                          |
|     VDW_A2 = 4.538                                                          |
|     in the INCAR file will overwrite the defaults for pbe. Please make      |
|     sure that is what you intended.                                         |
|                                                                             |
 -----------------------------------------------------------------------------

 exchange correlation table for  LEXCH =        8
   RHO(1)=    0.500       N(1)  =     2000
   RHO(2)=  100.500       N(2)  =     4000



--------------------------------------------------------------------------------------------------------


 ion  position               nearest neighbor table
   1  0.400  0.417  0.591- 153 1.98   4 2.26   3 2.42   2 2.42  55 2.62
   2  0.490  0.488  0.600- 154 2.19   4 2.37   1 2.42
   3  0.310  0.488  0.600- 134 2.19   4 2.37   1 2.42
   4  0.400  0.492  0.664-   1 2.26   2 2.37   3 2.37
   5  0.000  0.000  0.407- 107 2.11 108 2.11 123 2.11 188 2.11 105 2.11
   6  0.100  0.100  0.407- 107 2.11 108 2.11 112 2.11 127 2.11 106 2.11
   7  0.000  0.100  0.503- 105 2.11 106 2.11 109 2.11 186 2.11 107 2.11
   8  0.100  0.000  0.503- 105 2.11 106 2.11 122 2.11 125 2.11 108 2.11
   9  0.000  0.200  0.407- 111 2.11 107 2.11 112 2.11 192 2.11 109 2.11
  10  0.100  0.300  0.407- 112 2.11 111 2.11 116 2.11 131 2.11 110 2.11
  11  0.000  0.300  0.503- 109 2.11 110 2.11 113 2.11 190 2.11 111 2.11
  12  0.100  0.200  0.503- 110 2.11 109 2.11 106 2.11 129 2.11 112 2.11
  13  0.000  0.400  0.407- 111 2.11 115 2.11 116 2.11 196 2.11 113 2.11
  14  0.100  0.500  0.407- 115 2.11 116 2.11 120 2.11 135 2.11 114 2.11
  15  0.000  0.500  0.503- 113 2.11 114 2.11 117 2.11 194 2.11 115 2.11
  16  0.100  0.400  0.503- 110 2.11 113 2.11 114 2.11 133 2.11 116 2.11
  17  0.000  0.600  0.407- 115 2.11 119 2.11 120 2.11 200 2.11 117 2.11
  18  0.100  0.700  0.407- 124 2.11 120 2.11 119 2.11 139 2.11 118 2.11
  19  0.000  0.700  0.503- 121 2.11 118 2.11 117 2.11 198 2.11 119 2.11
  20  0.100  0.600  0.503- 114 2.11 117 2.11 118 2.11 137 2.11 120 2.11
  21  0.000  0.800  0.407- 119 2.11 123 2.11 124 2.11 204 2.11 121 2.11
  22  0.100  0.900  0.407- 108 2.11 123 2.11 124 2.11 143 2.11 122 2.11
  23  0.000  0.900  0.503- 105 2.11 121 2.11 122 2.11 202 2.11 123 2.11
  24  0.100  0.800  0.503- 118 2.11 121 2.11 122 2.11 141 2.11 124 2.11
  25  0.200  0.000  0.407- 128 2.11 127 2.11 108 2.11 143 2.11 125 2.11
  26  0.300  0.100  0.407- 127 2.11 128 2.11 132 2.11 147 2.11 126 2.11
  27  0.200  0.100  0.503- 126 2.11 125 2.11 106 2.11 129 2.11 127 2.11
  28  0.300  0.000  0.503- 125 2.11 126 2.11 142 2.11 145 2.11 128 2.11
  29  0.200  0.200  0.407- 131 2.11 132 2.11 112 2.11 127 2.11 129 2.11
  30  0.300  0.300  0.407- 131 2.11 132 2.11 136 2.11 151 2.11 130 2.11
  31  0.200  0.300  0.503- 129 2.11 130 2.11 110 2.11 133 2.11 131 2.11
  32  0.300  0.200  0.503- 129 2.11 130 2.11 126 2.11 149 2.11 132 2.11
  33  0.200  0.400  0.407- 136 2.11 131 2.11 135 2.11 116 2.11 133 2.11
  34  0.300  0.500  0.407- 135 2.11 136 2.11 140 2.11 155 2.11 134 2.11
  35  0.200  0.500  0.503- 134 2.11 133 2.11 114 2.11 137 2.11 135 2.11
  36  0.300  0.400  0.503- 133 2.11 130 2.11 134 2.11 153 2.11 136 2.11
  37  0.200  0.600  0.407- 140 2.11 135 2.11 139 2.11 120 2.11 137 2.11
  38  0.300  0.700  0.407- 139 2.11 144 2.11 140 2.11 159 2.11 138 2.11
  39  0.200  0.700  0.503- 138 2.11 141 2.11 118 2.11 137 2.11 139 2.11
  40  0.300  0.600  0.503- 137 2.11 134 2.11 138 2.11 157 2.11 140 2.11
  41  0.200  0.800  0.407- 139 2.11 144 2.11 143 2.11 124 2.11 141 2.11
  42  0.300  0.900  0.407- 143 2.11 128 2.11 144 2.11 163 2.11 142 2.11
  43  0.200  0.900  0.503- 142 2.11 125 2.11 141 2.11 122 2.11 143 2.11
  44  0.300  0.800  0.503- 138 2.11 141 2.11 142 2.11 161 2.11 144 2.11
  45  0.400  0.000  0.407- 128 2.11 147 2.11 148 2.11 163 2.11 145 2.11
  46  0.500  0.100  0.407- 147 2.11 148 2.11 152 2.11 167 2.11 146 2.11
  47  0.400  0.100  0.503- 126 2.11 145 2.11 146 2.11 149 2.11 147 2.11
  48  0.500  0.000  0.503- 145 2.11 146 2.11 162 2.11 165 2.11 148 2.11
  49  0.400  0.200  0.407- 151 2.11 147 2.11 132 2.11 152 2.11 149 2.11
  50  0.500  0.300  0.407- 152 2.11 151 2.11 156 2.11 171 2.11 150 2.11
  51  0.400  0.300  0.503- 149 2.11 130 2.11 150 2.11 153 2.11 151 2.11
  52  0.500  0.200  0.503- 150 2.11 149 2.11 146 2.11 169 2.11 152 2.11
  53  0.400  0.400  0.407- 136 2.11 151 2.11 155 2.11 156 2.11 153 2.11
  54  0.500  0.500  0.407- 155 2.11 156 2.11 160 2.11 175 2.11 154 2.11
  55  0.400  0.500  0.503- 134 2.11 153 2.11 154 2.11 157 2.11 155 2.11   1 2.62
  56  0.500  0.400  0.503- 150 2.11 153 2.11 154 2.11 173 2.11 156 2.11
  57  0.400  0.600  0.407- 140 2.11 155 2.11 159 2.11 160 2.11 157 2.11
  58  0.500  0.700  0.407- 164 2.11 160 2.11 159 2.11 179 2.11 158 2.11
  59  0.400  0.700  0.503- 161 2.11 157 2.11 158 2.11 138 2.11 159 2.11
  60  0.500  0.600  0.503- 154 2.11 157 2.11 158 2.11 177 2.11 160 2.11
  61  0.400  0.800  0.407- 159 2.11 144 2.11 163 2.11 164 2.11 161 2.11
  62  0.500  0.900  0.407- 148 2.11 163 2.11 164 2.11 183 2.11 162 2.11
  63  0.400  0.900  0.503- 142 2.11 145 2.11 161 2.11 162 2.11 163 2.11
  64  0.500  0.800  0.503- 158 2.11 161 2.11 162 2.11 181 2.11 164 2.11
  65  0.600  0.000  0.407- 148 2.11 167 2.11 168 2.11 183 2.11 165 2.11
  66  0.700  0.100  0.407- 187 2.11 168 2.11 172 2.11 167 2.11 166 2.11
  67  0.600  0.100  0.503- 146 2.11 165 2.11 166 2.11 169 2.11 167 2.11
  68  0.700  0.000  0.503- 185 2.11 166 2.11 182 2.11 165 2.11 168 2.11
  69  0.600  0.200  0.407- 171 2.11 167 2.11 152 2.11 172 2.11 169 2.11
  70  0.700  0.300  0.407- 172 2.11 191 2.11 176 2.11 171 2.11 170 2.11
  71  0.600  0.300  0.503- 169 2.11 150 2.11 170 2.11 173 2.11 171 2.11
  72  0.700  0.200  0.503- 170 2.11 189 2.11 166 2.11 169 2.11 172 2.11
  73  0.600  0.400  0.407- 156 2.11 171 2.11 175 2.11 176 2.11 173 2.11
  74  0.700  0.500  0.407- 195 2.11 176 2.11 180 2.11 175 2.11 174 2.11
  75  0.600  0.500  0.503- 154 2.11 173 2.11 174 2.11 177 2.11 175 2.11
  76  0.700  0.400  0.503- 193 2.11 173 2.11 174 2.11 170 2.11 176 2.11
  77  0.600  0.600  0.407- 160 2.11 175 2.11 179 2.11 180 2.11 177 2.11
  78  0.700  0.700  0.407- 184 2.11 199 2.11 179 2.11 180 2.11 178 2.11
  79  0.600  0.700  0.503- 181 2.11 177 2.11 178 2.11 158 2.11 179 2.11
  80  0.700  0.600  0.503- 197 2.11 177 2.11 178 2.11 174 2.11 180 2.11
  81  0.600  0.800  0.407- 179 2.11 164 2.11 183 2.11 184 2.11 181 2.11
  82  0.700  0.900  0.407- 203 2.11 183 2.11 184 2.11 168 2.11 182 2.11
  83  0.600  0.900  0.503- 162 2.11 165 2.11 181 2.11 182 2.11 183 2.11
  84  0.700  0.800  0.503- 178 2.11 201 2.11 182 2.11 181 2.11 184 2.11
  85  0.800  0.000  0.407- 168 2.11 187 2.11 188 2.11 203 2.11 185 2.11
  86  0.900  0.100  0.407- 107 2.11 187 2.11 188 2.11 192 2.11 186 2.11
  87  0.800  0.100  0.503- 166 2.11 185 2.11 186 2.11 189 2.11 187 2.11
  88  0.900  0.000  0.503- 105 2.11 185 2.11 186 2.11 202 2.11 188 2.11
  89  0.800  0.200  0.407- 172 2.11 191 2.11 187 2.11 192 2.11 189 2.11
  90  0.900  0.300  0.407- 192 2.11 191 2.11 111 2.11 196 2.11 190 2.11
  91  0.800  0.300  0.503- 170 2.11 189 2.11 190 2.11 193 2.11 191 2.11
  92  0.900  0.200  0.503- 190 2.11 186 2.11 189 2.11 109 2.11 192 2.11
  93  0.800  0.400  0.407- 176 2.11 191 2.11 195 2.11 196 2.11 193 2.11
  94  0.900  0.500  0.407- 115 2.11 195 2.11 196 2.11 200 2.11 194 2.11
  95  0.800  0.500  0.503- 174 2.11 193 2.11 194 2.11 197 2.11 195 2.11
  96  0.900  0.400  0.503- 113 2.11 190 2.11 193 2.11 194 2.11 196 2.11
  97  0.800  0.600  0.407- 180 2.11 195 2.11 199 2.11 200 2.11 197 2.11
  98  0.900  0.700  0.407- 204 2.11 199 2.11 200 2.11 119 2.11 198 2.11
  99  0.800  0.700  0.503- 178 2.11 201 2.11 198 2.11 197 2.11 199 2.11
 100  0.900  0.600  0.503- 117 2.11 194 2.11 197 2.11 198 2.11 200 2.11
 101  0.800  0.800  0.407- 184 2.11 199 2.11 203 2.11 204 2.11 201 2.11
 102  0.900  0.900  0.407- 123 2.11 188 2.11 203 2.11 204 2.11 202 2.11
 103  0.800  0.900  0.503- 182 2.11 185 2.11 201 2.11 202 2.11 203 2.11
 104  0.900  0.800  0.503- 198 2.11 121 2.11 201 2.11 202 2.11 204 2.11
 105  0.000  0.000  0.503-   7 2.11   8 2.11  23 2.11  88 2.11   5 2.11
 106  0.100  0.100  0.503-   7 2.11   8 2.11  12 2.11  27 2.11   6 2.11
 107  0.000  0.100  0.407-   5 2.11   6 2.11   9 2.11  86 2.11   7 2.11
 108  0.100  0.000  0.407-   5 2.11   6 2.11  22 2.11  25 2.11   8 2.11
 109  0.000  0.200  0.503-  11 2.11   7 2.11  12 2.11  92 2.11   9 2.11
 110  0.100  0.300  0.503-  12 2.11  11 2.11  16 2.11  31 2.11  10 2.11
 111  0.000  0.300  0.407-   9 2.11  10 2.11  13 2.11  90 2.11  11 2.11
 112  0.100  0.200  0.407-  10 2.11   9 2.11   6 2.11  29 2.11  12 2.11
 113  0.000  0.400  0.503-  11 2.11  15 2.11  16 2.11  96 2.11  13 2.11
 114  0.100  0.500  0.503-  15 2.11  16 2.11  20 2.11  35 2.11  14 2.11
 115  0.000  0.500  0.407-  13 2.11  14 2.11  17 2.11  94 2.11  15 2.11
 116  0.100  0.400  0.407-  10 2.11  13 2.11  14 2.11  33 2.11  16 2.11
 117  0.000  0.600  0.503-  15 2.11  19 2.11  20 2.11 100 2.11  17 2.11
 118  0.100  0.700  0.503-  24 2.11  20 2.11  19 2.11  39 2.11  18 2.11
 119  0.000  0.700  0.407-  21 2.11  18 2.11  17 2.11  98 2.11  19 2.11
 120  0.100  0.600  0.407-  14 2.11  17 2.11  18 2.11  37 2.11  20 2.11
 121  0.000  0.800  0.503-  19 2.11  23 2.11  24 2.11 104 2.11  21 2.11
 122  0.100  0.900  0.503-   8 2.11  23 2.11  24 2.11  43 2.11  22 2.11
 123  0.000  0.900  0.407-   5 2.11  21 2.11  22 2.11 102 2.11  23 2.11
 124  0.100  0.800  0.407-  18 2.11  21 2.11  22 2.11  41 2.11  24 2.11
 125  0.200  0.000  0.503-  28 2.11  27 2.11   8 2.11  43 2.11  25 2.11
 126  0.300  0.100  0.503-  27 2.11  28 2.11  32 2.11  47 2.11  26 2.11
 127  0.200  0.100  0.407-  26 2.11  25 2.11   6 2.11  29 2.11  27 2.11
 128  0.300  0.000  0.407-  25 2.11  26 2.11  42 2.11  45 2.11  28 2.11
 129  0.200  0.200  0.503-  31 2.11  32 2.11  12 2.11  27 2.11  29 2.11
 130  0.300  0.300  0.503-  31 2.11  32 2.11  36 2.11  51 2.11  30 2.11
 131  0.200  0.300  0.407-  29 2.11  30 2.11  10 2.11  33 2.11  31 2.11
 132  0.300  0.200  0.407-  29 2.11  30 2.11  26 2.11  49 2.11  32 2.11
 133  0.200  0.400  0.503-  36 2.11  31 2.11  35 2.11  16 2.11  33 2.11
 134  0.300  0.500  0.503-  35 2.11  36 2.11  40 2.11  55 2.11  34 2.11   3 2.19
 135  0.200  0.500  0.407-  34 2.11  33 2.11  14 2.11  37 2.11  35 2.11
 136  0.300  0.400  0.407-  33 2.11  30 2.11  34 2.11  53 2.11  36 2.11
 137  0.200  0.600  0.503-  40 2.11  35 2.11  39 2.11  20 2.11  37 2.11
 138  0.300  0.700  0.503-  39 2.11  44 2.11  40 2.11  59 2.11  38 2.11
 139  0.200  0.700  0.407-  38 2.11  41 2.11  18 2.11  37 2.11  39 2.11
 140  0.300  0.600  0.407-  37 2.11  34 2.11  38 2.11  57 2.11  40 2.11
 141  0.200  0.800  0.503-  39 2.11  44 2.11  43 2.11  24 2.11  41 2.11
 142  0.300  0.900  0.503-  43 2.11  28 2.11  44 2.11  63 2.11  42 2.11
 143  0.200  0.900  0.407-  42 2.11  25 2.11  41 2.11  22 2.11  43 2.11
 144  0.300  0.800  0.407-  38 2.11  41 2.11  42 2.11  61 2.11  44 2.11
 145  0.400  0.000  0.503-  28 2.11  47 2.11  48 2.11  63 2.11  45 2.11
 146  0.500  0.100  0.503-  47 2.11  48 2.11  52 2.11  67 2.11  46 2.11
 147  0.400  0.100  0.407-  26 2.11  45 2.11  46 2.11  49 2.11  47 2.11
 148  0.500  0.000  0.407-  45 2.11  46 2.11  62 2.11  65 2.11  48 2.11
 149  0.400  0.200  0.503-  51 2.11  47 2.11  32 2.11  52 2.11  49 2.11
 150  0.500  0.300  0.503-  52 2.11  51 2.11  56 2.11  71 2.11  50 2.11
 151  0.400  0.300  0.407-  49 2.11  30 2.11  50 2.11  53 2.11  51 2.11
 152  0.500  0.200  0.407-  50 2.11  49 2.11  46 2.11  69 2.11  52 2.11
 153  0.400  0.400  0.503-   1 1.98  36 2.11  51 2.11  55 2.11  56 2.11  53 2.11
 154  0.500  0.500  0.503-  55 2.11  56 2.11  60 2.11  75 2.11  54 2.11   2 2.19
 155  0.400  0.500  0.407-  34 2.11  53 2.11  54 2.11  57 2.11  55 2.11
 156  0.500  0.400  0.407-  50 2.11  53 2.11  54 2.11  73 2.11  56 2.11
 157  0.400  0.600  0.503-  40 2.11  55 2.11  59 2.11  60 2.11  57 2.11
 158  0.500  0.700  0.503-  64 2.11  60 2.11  59 2.11  79 2.11  58 2.11
 159  0.400  0.700  0.407-  61 2.11  57 2.11  58 2.11  38 2.11  59 2.11
 160  0.500  0.600  0.407-  54 2.11  57 2.11  58 2.11  77 2.11  60 2.11
 161  0.400  0.800  0.503-  59 2.11  44 2.11  63 2.11  64 2.11  61 2.11
 162  0.500  0.900  0.503-  48 2.11  63 2.11  64 2.11  83 2.11  62 2.11
 163  0.400  0.900  0.407-  42 2.11  45 2.11  61 2.11  62 2.11  63 2.11
 164  0.500  0.800  0.407-  58 2.11  61 2.11  62 2.11  81 2.11  64 2.11
 165  0.600  0.000  0.503-  48 2.11  67 2.11  68 2.11  83 2.11  65 2.11
 166  0.700  0.100  0.503-  87 2.11  68 2.11  72 2.11  67 2.11  66 2.11
 167  0.600  0.100  0.407-  46 2.11  65 2.11  66 2.11  69 2.11  67 2.11
 168  0.700  0.000  0.407-  85 2.11  66 2.11  82 2.11  65 2.11  68 2.11
 169  0.600  0.200  0.503-  71 2.11  67 2.11  52 2.11  72 2.11  69 2.11
 170  0.700  0.300  0.503-  72 2.11  91 2.11  76 2.11  71 2.11  70 2.11
 171  0.600  0.300  0.407-  69 2.11  50 2.11  70 2.11  73 2.11  71 2.11
 172  0.700  0.200  0.407-  70 2.11  89 2.11  66 2.11  69 2.11  72 2.11
 173  0.600  0.400  0.503-  56 2.11  71 2.11  75 2.11  76 2.11  73 2.11
 174  0.700  0.500  0.503-  95 2.11  76 2.11  80 2.11  75 2.11  74 2.11
 175  0.600  0.500  0.407-  54 2.11  73 2.11  74 2.11  77 2.11  75 2.11
 176  0.700  0.400  0.407-  93 2.11  73 2.11  74 2.11  70 2.11  76 2.11
 177  0.600  0.600  0.503-  60 2.11  75 2.11  79 2.11  80 2.11  77 2.11
 178  0.700  0.700  0.503-  84 2.11  99 2.11  79 2.11  80 2.11  78 2.11
 179  0.600  0.700  0.407-  81 2.11  77 2.11  78 2.11  58 2.11  79 2.11
 180  0.700  0.600  0.407-  97 2.11  77 2.11  78 2.11  74 2.11  80 2.11
 181  0.600  0.800  0.503-  79 2.11  64 2.11  83 2.11  84 2.11  81 2.11
 182  0.700  0.900  0.503- 103 2.11  83 2.11  84 2.11  68 2.11  82 2.11
 183  0.600  0.900  0.407-  62 2.11  65 2.11  81 2.11  82 2.11  83 2.11
 184  0.700  0.800  0.407-  78 2.11 101 2.11  82 2.11  81 2.11  84 2.11
 185  0.800  0.000  0.503-  68 2.11  87 2.11  88 2.11 103 2.11  85 2.11
 186  0.900  0.100  0.503-   7 2.11  87 2.11  88 2.11  92 2.11  86 2.11
 187  0.800  0.100  0.407-  66 2.11  85 2.11  86 2.11  89 2.11  87 2.11
 188  0.900  0.000  0.407-   5 2.11  85 2.11  86 2.11 102 2.11  88 2.11
 189  0.800  0.200  0.503-  72 2.11  91 2.11  87 2.11  92 2.11  89 2.11
 190  0.900  0.300  0.503-  92 2.11  91 2.11  11 2.11  96 2.11  90 2.11
 191  0.800  0.300  0.407-  70 2.11  89 2.11  90 2.11  93 2.11  91 2.11
 192  0.900  0.200  0.407-  90 2.11  86 2.11  89 2.11   9 2.11  92 2.11
 193  0.800  0.400  0.503-  76 2.11  91 2.11  95 2.11  96 2.11  93 2.11
 194  0.900  0.500  0.503-  15 2.11  95 2.11  96 2.11 100 2.11  94 2.11
 195  0.800  0.500  0.407-  74 2.11  93 2.11  94 2.11  97 2.11  95 2.11
 196  0.900  0.400  0.407-  13 2.11  90 2.11  93 2.11  94 2.11  96 2.11
 197  0.800  0.600  0.503-  80 2.11  95 2.11  99 2.11 100 2.11  97 2.11
 198  0.900  0.700  0.503- 104 2.11  99 2.11 100 2.11  19 2.11  98 2.11
 199  0.800  0.700  0.407-  78 2.11 101 2.11  98 2.11  97 2.11  99 2.11
 200  0.900  0.600  0.407-  17 2.11  94 2.11  97 2.11  98 2.11 100 2.11
 201  0.800  0.800  0.503-  84 2.11  99 2.11 103 2.11 104 2.11 101 2.11
 202  0.900  0.900  0.503-  23 2.11  88 2.11 103 2.11 104 2.11 102 2.11
 203  0.800  0.900  0.407-  82 2.11  85 2.11 101 2.11 102 2.11 103 2.11
 204  0.900  0.800  0.407-  98 2.11  21 2.11 101 2.11 102 2.11 104 2.11

  LATTYP: Found a simple tetragonal cell.
 ALAT       =    21.1388521970
 C/A-ratio  =     1.0461251639
  
  Lattice vectors:
  
 A1 = (  21.1388521970,   0.0000000000,   0.0000000000)
 A2 = (   0.0000000000,  21.1388521970,   0.0000000000)
 A3 = (   0.0000000000,   0.0000000000,  22.1138852197)


Analysis of symmetry for initial positions (statically):
=====================================================================
 Subroutine PRICEL returns:
 Original cell was already a primitive cell.
 

 Routine SETGRP: Setting up the symmetry group for a 
 simple tetragonal supercell.


 Subroutine GETGRP returns: Found  2 space group operations
 (whereof  1 operations were pure point group operations)
 out of a pool of 16 trial point group operations.


The static configuration has the point symmetry C_1 .
 The point group associated with its full space group is C_1h.


Analysis of symmetry for dynamics (positions and initial velocities):
=====================================================================
 Subroutine PRICEL returns:
 Original cell was already a primitive cell.
 

 Routine SETGRP: Setting up the symmetry group for a 
 simple tetragonal supercell.


 Subroutine GETGRP returns: Found  2 space group operations
 (whereof  1 operations were pure point group operations)
 out of a pool of 16 trial point group operations.


The dynamic configuration has the point symmetry C_1 .
 The point group associated with its full space group is C_1h.


Analysis of constrained symmetry for selective dynamics:
=====================================================================
 Subroutine PRICEL returns:
 Original cell was already a primitive cell.
 

 Routine SETGRP: Setting up the symmetry group for a 
 simple tetragonal supercell.


 Subroutine GETGRP returns: Found  2 space group operations
 (whereof  1 operations were pure point group operations)
 out of a pool of 16 trial point group operations.


The constrained configuration has the point symmetry C_1 .
 The point group associated with its full space group is C_1h.


 Subroutine INISYM returns: Found  2 space group operations
 (whereof  1 operations are pure point group operations),
 and found     1 'primitive' translations


----------------------------------------------------------------------------------------

                                     Primitive cell                                     

  volume of cell :    9881.6133

  direct lattice vectors                    reciprocal lattice vectors
    21.138852197  0.000000000  0.000000000     0.047306258  0.000000000  0.000000000
     0.000000000 21.138852197  0.000000000     0.000000000  0.047306258  0.000000000
     0.000000000  0.000000000 22.113885220     0.000000000  0.000000000  0.045220457

  length of vectors
    21.138852197 21.138852197 22.113885220     0.047306258  0.047306258  0.045220457

  position of ions in fractional coordinates (direct lattice)
     0.400000448  0.417421820  0.590666055
     0.489930887  0.487828399  0.600479320
     0.310074740  0.487828788  0.600479320
     0.400005179  0.491990244  0.664187608
     0.000000000  0.000000000  0.406984115
     0.100000000  0.100000000  0.406984115
     0.000000000  0.100000000  0.502574971
     0.100000000  0.000000000  0.502574971
     0.000000000  0.200000000  0.406984115
     0.100000000  0.300000000  0.406984115
     0.000000000  0.300000000  0.502574971
     0.100000000  0.200000000  0.502574971
     0.000000000  0.400000000  0.406984115
     0.100000000  0.500000000  0.406984115
     0.000000000  0.500000000  0.502574971
     0.100000000  0.400000000  0.502574971
     0.000000000  0.600000000  0.406984115
     0.100000000  0.700000000  0.406984115
     0.000000000  0.700000000  0.502574971
     0.100000000  0.600000000  0.502574971
     0.000000000  0.800000000  0.406984115
     0.100000000  0.900000000  0.406984115
     0.000000000  0.900000000  0.502574971
     0.100000000  0.800000000  0.502574971
     0.200000000  0.000000000  0.406984115
     0.300000000  0.100000000  0.406984115
     0.200000000  0.100000000  0.502574971
     0.300000000  0.000000000  0.502574971
     0.200000000  0.200000000  0.406984115
     0.300000000  0.300000000  0.406984115
     0.200000000  0.300000000  0.502574971
     0.300000000  0.200000000  0.502574971
     0.200000000  0.400000000  0.406984115
     0.300000000  0.500000000  0.406984115
     0.200000000  0.500000000  0.502574971
     0.300000000  0.400000000  0.502574971
     0.200000000  0.600000000  0.406984115
     0.300000000  0.700000000  0.406984115
     0.200000000  0.700000000  0.502574971
     0.300000000  0.600000000  0.502574971
     0.200000000  0.800000000  0.406984115
     0.300000000  0.900000000  0.406984115
     0.200000000  0.900000000  0.502574971
     0.300000000  0.800000000  0.502574971
     0.400000000  0.000000000  0.406984115
     0.500000000  0.100000000  0.406984115
     0.400000000  0.100000000  0.502574971
     0.500000000  0.000000000  0.502574971
     0.400000000  0.200000000  0.406984115
     0.500000000  0.300000000  0.406984115
     0.400000000  0.300000000  0.502574971
     0.500000000  0.200000000  0.502574971
     0.400000000  0.400000000  0.406984115
     0.500000000  0.500000000  0.406984115
     0.400000000  0.500000000  0.502574971
     0.500000000  0.400000000  0.502574971
     0.400000000  0.600000000  0.406984115
     0.500000000  0.700000000  0.406984115
     0.400000000  0.700000000  0.502574971
     0.500000000  0.600000000  0.502574971
     0.400000000  0.800000000  0.406984115
     0.500000000  0.900000000  0.406984115
     0.400000000  0.900000000  0.502574971
     0.500000000  0.800000000  0.502574971
     0.600000000  0.000000000  0.406984115
     0.700000000  0.100000000  0.406984115
     0.600000000  0.100000000  0.502574971
     0.700000000  0.000000000  0.502574971
     0.600000000  0.200000000  0.406984115
     0.700000000  0.300000000  0.406984115
     0.600000000  0.300000000  0.502574971
     0.700000000  0.200000000  0.502574971
     0.600000000  0.400000000  0.406984115
     0.700000000  0.500000000  0.406984115
     0.600000000  0.500000000  0.502574971
     0.700000000  0.400000000  0.502574971
     0.600000000  0.600000000  0.406984115
     0.700000000  0.700000000  0.406984115
     0.600000000  0.700000000  0.502574971
     0.700000000  0.600000000  0.502574971
     0.600000000  0.800000000  0.406984115
     0.700000000  0.900000000  0.406984115
     0.600000000  0.900000000  0.502574971
     0.700000000  0.800000000  0.502574971
     0.800000000  0.000000000  0.406984115
     0.900000000  0.100000000  0.406984115
     0.800000000  0.100000000  0.502574971
     0.900000000  0.000000000  0.502574971
     0.800000000  0.200000000  0.406984115
     0.900000000  0.300000000  0.406984115
     0.800000000  0.300000000  0.502574971
     0.900000000  0.200000000  0.502574971
     0.800000000  0.400000000  0.406984115
     0.900000000  0.500000000  0.406984115
     0.800000000  0.500000000  0.502574971
     0.900000000  0.400000000  0.502574971
     0.800000000  0.600000000  0.406984115
     0.900000000  0.700000000  0.406984115
     0.800000000  0.700000000  0.502574971
     0.900000000  0.600000000  0.502574971
     0.800000000  0.800000000  0.406984115
     0.900000000  0.900000000  0.406984115
     0.800000000  0.900000000  0.502574971
     0.900000000  0.800000000  0.502574971
     0.000000000  0.000000000  0.502574971
     0.100000000  0.100000000  0.502574971
     0.000000000  0.100000000  0.406984115
     0.100000000  0.000000000  0.406984115
     0.000000000  0.200000000  0.502574971
     0.100000000  0.300000000  0.502574971
     0.000000000  0.300000000  0.406984115
     0.100000000  0.200000000  0.406984115
     0.000000000  0.400000000  0.502574971
     0.100000000  0.500000000  0.502574971
     0.000000000  0.500000000  0.406984115
     0.100000000  0.400000000  0.406984115
     0.000000000  0.600000000  0.502574971
     0.100000000  0.700000000  0.502574971
     0.000000000  0.700000000  0.406984115
     0.100000000  0.600000000  0.406984115
     0.000000000  0.800000000  0.502574971
     0.100000000  0.900000000  0.502574971
     0.000000000  0.900000000  0.406984115
     0.100000000  0.800000000  0.406984115
     0.200000000  0.000000000  0.502574971
     0.300000000  0.100000000  0.502574971
     0.200000000  0.100000000  0.406984115
     0.300000000  0.000000000  0.406984115
     0.200000000  0.200000000  0.502574971
     0.300000000  0.300000000  0.502574971
     0.200000000  0.300000000  0.406984115
     0.300000000  0.200000000  0.406984115
     0.200000000  0.400000000  0.502574971
     0.300000000  0.500000000  0.502574971
     0.200000000  0.500000000  0.406984115
     0.300000000  0.400000000  0.406984115
     0.200000000  0.600000000  0.502574971
     0.300000000  0.700000000  0.502574971
     0.200000000  0.700000000  0.406984115
     0.300000000  0.600000000  0.406984115
     0.200000000  0.800000000  0.502574971
     0.300000000  0.900000000  0.502574971
     0.200000000  0.900000000  0.406984115
     0.300000000  0.800000000  0.406984115
     0.400000000  0.000000000  0.502574971
     0.500000000  0.100000000  0.502574971
     0.400000000  0.100000000  0.406984115
     0.500000000  0.000000000  0.406984115
     0.400000000  0.200000000  0.502574971
     0.500000000  0.300000000  0.502574971
     0.400000000  0.300000000  0.406984115
     0.500000000  0.200000000  0.406984115
     0.400000000  0.400000000  0.502574971
     0.500000000  0.500000000  0.502574971
     0.400000000  0.500000000  0.406984115
     0.500000000  0.400000000  0.406984115
     0.400000000  0.600000000  0.502574971
     0.500000000  0.700000000  0.502574971
     0.400000000  0.700000000  0.406984115
     0.500000000  0.600000000  0.406984115
     0.400000000  0.800000000  0.502574971
     0.500000000  0.900000000  0.502574971
     0.400000000  0.900000000  0.406984115
     0.500000000  0.800000000  0.406984115
     0.600000000  0.000000000  0.502574971
     0.700000000  0.100000000  0.502574971
     0.600000000  0.100000000  0.406984115
     0.700000000  0.000000000  0.406984115
     0.600000000  0.200000000  0.502574971
     0.700000000  0.300000000  0.502574971
     0.600000000  0.300000000  0.406984115
     0.700000000  0.200000000  0.406984115
     0.600000000  0.400000000  0.502574971
     0.700000000  0.500000000  0.502574971
     0.600000000  0.500000000  0.406984115
     0.700000000  0.400000000  0.406984115
     0.600000000  0.600000000  0.502574971
     0.700000000  0.700000000  0.502574971
     0.600000000  0.700000000  0.406984115
     0.700000000  0.600000000  0.406984115
     0.600000000  0.800000000  0.502574971
     0.700000000  0.900000000  0.502574971
     0.600000000  0.900000000  0.406984115
     0.700000000  0.800000000  0.406984115
     0.800000000  0.000000000  0.502574971
     0.900000000  0.100000000  0.502574971
     0.800000000  0.100000000  0.406984115
     0.900000000  0.000000000  0.406984115
     0.800000000  0.200000000  0.502574971
     0.900000000  0.300000000  0.502574971
     0.800000000  0.300000000  0.406984115
     0.900000000  0.200000000  0.406984115
     0.800000000  0.400000000  0.502574971
     0.900000000  0.500000000  0.502574971
     0.800000000  0.500000000  0.406984115
     0.900000000  0.400000000  0.406984115
     0.800000000  0.600000000  0.502574971
     0.900000000  0.700000000  0.502574971
     0.800000000  0.700000000  0.406984115
     0.900000000  0.600000000  0.406984115
     0.800000000  0.800000000  0.502574971
     0.900000000  0.900000000  0.502574971
     0.800000000  0.900000000  0.406984115
     0.900000000  0.800000000  0.406984115

  ion indices of the primitive-cell ions
   primitive index   ion index
                 1           1
                 2           2
                 3           3
                 4           4
                 5           5
                 6           6
                 7           7
                 8           8
                 9           9
                10          10
                11          11
                12          12
                13          13
                14          14
                15          15
                16          16
                17          17
                18          18
                19          19
                20          20
                21          21
                22          22
                23          23
                24          24
                25          25
                26          26
                27          27
                28          28
                29          29
                30          30
                31          31
                32          32
                33          33
                34          34
                35          35
                36          36
                37          37
                38          38
                39          39
                40          40
                41          41
                42          42
                43          43
                44          44
                45          45
                46          46
                47          47
                48          48
                49          49
                50          50
                51          51
                52          52
                53          53
                54          54
                55          55
                56          56
                57          57
                58          58
                59          59
                60          60
                61          61
                62          62
                63          63
                64          64
                65          65
                66          66
                67          67
                68          68
                69          69
                70          70
                71          71
                72          72
                73          73
                74          74
                75          75
                76          76
                77          77
                78          78
                79          79
                80          80
                81          81
                82          82
                83          83
                84          84
                85          85
                86          86
                87          87
                88          88
                89          89
                90          90
                91          91
                92          92
                93          93
                94          94
                95          95
                96          96
                97          97
                98          98
                99          99
               100         100
               101         101
               102         102
               103         103
               104         104
               105         105
               106         106
               107         107
               108         108
               109         109
               110         110
               111         111
               112         112
               113         113
               114         114
               115         115
               116         116
               117         117
               118         118
               119         119
               120         120
               121         121
               122         122
               123         123
               124         124
               125         125
               126         126
               127         127
               128         128
               129         129
               130         130
               131         131
               132         132
               133         133
               134         134
               135         135
               136         136
               137         137
               138         138
               139         139
               140         140
               141         141
               142         142
               143         143
               144         144
               145         145
               146         146
               147         147
               148         148
               149         149
               150         150
               151         151
               152         152
               153         153
               154         154
               155         155
               156         156
               157         157
               158         158
               159         159
               160         160
               161         161
               162         162
               163         163
               164         164
               165         165
               166         166
               167         167
               168         168
               169         169
               170         170
               171         171
               172         172
               173         173
               174         174
               175         175
               176         176
               177         177
               178         178
               179         179
               180         180
               181         181
               182         182
               183         183
               184         184
               185         185
               186         186
               187         187
               188         188
               189         189
               190         190
               191         191
               192         192
               193         193
               194         194
               195         195
               196         196
               197         197
               198         198
               199         199
               200         200
               201         201
               202         202
               203         203
               204         204

----------------------------------------------------------------------------------------



 KPOINTS: KPOINTS created by Atomic Simulation Env

Automatic generation of k-mesh.
 Grid dimensions read from file:
 generate k-points for:    1    1    1

 Generating k-lattice:

  Cartesian coordinates                     Fractional coordinates (reciprocal lattice)
     0.047306258  0.000000000  0.000000000     1.000000000  0.000000000  0.000000000
     0.000000000  0.047306258  0.000000000     0.000000000  1.000000000  0.000000000
     0.000000000  0.000000000  0.045220457     0.000000000  0.000000000  1.000000000

  Length of vectors
     0.047306258  0.047306258  0.045220457

  Shift w.r.t. Gamma in fractional coordinates (k-lattice)
     0.000000000  0.000000000  0.000000000

 
 Subroutine IBZKPT returns following result:
 ===========================================
 
 Found      1 irreducible k-points:
 
 Following reciprocal coordinates:
            Coordinates               Weight
  0.000000  0.000000  0.000000      1.000000
 
 Following cartesian coordinates:
            Coordinates               Weight
  0.000000  0.000000  0.000000      1.000000
 


--------------------------------------------------------------------------------------------------------




 Dimension of arrays:
   k-points           NKPTS =      1   k-points in BZ     NKDIM =      1   number of bands    NBANDS=   1024
   number of dos      NEDOS =    301   number of ions     NIONS =    204
   non local maximal  LDIM  =      6   non local SUM 2l+1 LMDIM =     18
   total plane-waves  NPLWV = ******
   max r-space proj   IRMAX =   6628   max aug-charges    IRDMAX=  12805
   dimension x,y,z NGX =   160 NGY =  160 NGZ =  168
   dimension x,y,z NGXF=   320 NGYF=  320 NGZF=  336
   support grid    NGXF=   320 NGYF=  320 NGZF=  336
   ions per type =               4 100 100
   NGX,Y,Z   is equivalent  to a cutoff of  12.58, 12.58, 12.63 a.u.
   NGXF,Y,Z  is equivalent  to a cutoff of  25.17, 25.17, 25.26 a.u.

 SYSTEM =  MgO-rocksalt                            
 POSCAR =  Cu Mg  O                                

 Startparameter for this run:
   NWRITE =      2    write-flag & timer
   PREC   = accura    normal or accurate (medium, high low for compatibility)
   ISTART =      0    job   : 0-new  1-cont  2-samecut
   ICHARG =      2    charge: 1-file 2-atom 10-const
   ISPIN  =      1    spin polarized calculation?
   LNONCOLLINEAR =      F non collinear calculations
   LSORBIT =      F    spin-orbit coupling
   INIWAV =      1    electr: 0-lowe 1-rand  2-diag
   LASPH  =      T    aspherical Exc in radial PAW
 Electronic Relaxation 1
   ENCUT  =  520.0 eV  38.22 Ry    6.18 a.u.  39.30 39.30 41.12*2*pi/ulx,y,z
   ENINI  =  520.0     initial cutoff
   ENAUG  =  758.8 eV  augmentation charge cutoff
   NELM   =    200;   NELMIN=  8; NELMDL= -5     # of ELM steps 
   EDIFF  = 0.1E-05   stopping-criterion for ELM
   LREAL  =      T    real-space projection
   NLSPLINE    = F    spline interpolate recip. space projectors
   LCOMPAT=      F    compatible to vasp.4.4
   GGA_COMPAT  = T    GGA compatible to vasp.4.4-vasp.4.6
   LMAXPAW     = -100 max onsite density
   LMAXMIX     =    2 max onsite mixed and CHGCAR
   VOSKOWN=      0    Vosko Wilk Nusair interpolation
   ROPT   =   -0.00025  -0.00025  -0.00025
 Ionic relaxation
   EDIFFG = 0.1E-04   stopping-criterion for IOM
   NSW    =      0    number of steps for IOM
   NBLOCK =      1;   KBLOCK =      1    inner block; outer block 
   IBRION =     -1    ionic relax: 0-MD 1-quasi-New 2-CG
   NFREE  =      0    steps in history (QN), initial steepest desc. (CG)
   ISIF   =      2    stress and relaxation
   IWAVPR =     10    prediction:  0-non 1-charg 2-wave 3-comb
   ISYM   =      2    0-nonsym 1-usesym 2-fastsym
   LCORR  =      T    Harris-Foulkes like correction to forces

   POTIM  = 0.5000    time-step for ionic-motion
   TEIN   =    0.0    initial temperature
   TEBEG  =    0.0;   TEEND  =   0.0 temperature during run
   SMASS  =  -3.00    Nose mass-parameter (am)
   estimated Nose-frequenzy (Omega)   =  0.10E-29 period in steps = 0.13E+47 mass=  -0.102E-25a.u.
   SCALEE = 1.0000    scale energy and forces
   NPACO  =    256;   APACO  = 10.0  distance and # of slots for P.C.
   PSTRESS=    0.0 pullay stress

  Mass of Ions in am
   POMASS =  63.55 24.30 16.00
  Ionic Valenz
   ZVAL   =  11.00  8.00  6.00
  Atomic Wigner-Seitz radii
   RWIGS  =  -1.00 -1.00 -1.00
  virtual crystal weights 
   VCA    =   1.00  1.00  1.00
   NELECT =    1444.0000    total number of electrons
   NUPDOWN=      -1.0000    fix difference up-down

 DOS related values:
   EMIN   =  10.00;   EMAX   =-10.00  energy-range for DOS
   EFERMI =   0.00
   ISMEAR =     0;   SIGMA  =   0.05  broadening in eV -4-tet -1-fermi 0-gaus

 Electronic relaxation 2 (details)
   IALGO  =     58    algorithm
   LDIAG  =      T    sub-space diagonalisation (order eigenvalues)
   LSUBROT=      F    optimize rotation matrix (better conditioning)
   TURBO    =      0    0=normal 1=particle mesh
   IRESTART =      0    0=no restart 2=restart with 2 vectors
   NREBOOT  =      0    no. of reboots
   NMIN     =      0    reboot dimension
   EREF     =   0.00    reference energy to select bands
   IMIX   =      4    mixing-type and parameters
     AMIX     =   0.40;   BMIX     =  1.00
     AMIX_MAG =   1.60;   BMIX_MAG =  1.00
     AMIN     =   0.10
     WC   =   100.;   INIMIX=   1;  MIXPRE=   1;  MAXMIX= -45

 Intra band minimization:
   WEIMIN = 0.0000     energy-eigenvalue tresh-hold
   EBREAK =  0.24E-09  absolut break condition
   DEPER  =   0.30     relativ break condition  

   TIME   =   0.40     timestep for ELM

  volume/ion in A,a.u.               =      48.44       326.88
  Fermi-wavevector in a.u.,A,eV,Ry     =   0.862293  1.629497 10.116590  0.743548
  Thomas-Fermi vector in A             =   1.980073

 Write flags
   LWAVE        =      F    write WAVECAR
   LDOWNSAMPLE  =      F    k-point downsampling of WAVECAR
   LCHARG       =      F    write CHGCAR
   LVTOT        =      F    write LOCPOT, total local potential
   LVHAR        =      F    write LOCPOT, Hartree potential only
   LELF         =      F    write electronic localiz. function (ELF)
   LORBIT       =      0    0 simple, 1 ext, 2 COOP (PROOUT), +10 PAW based schemes


 Dipole corrections
   LMONO  =      F    monopole corrections only (constant potential shift)
   LDIPOL =      T    correct potential (dipole corrections)
   IDIPOL =      3    1-x, 2-y, 3-z, 4-all directions 
   EPSILON=  1.0000000 bulk dielectric constant

 Exchange correlation treatment:
   GGA     =    --    GGA type
   LEXCH   =     8    internal setting for exchange type
   LIBXC   =     F    Libxc                    
   VOSKOWN =     0    Vosko Wilk Nusair interpolation
   LHFCALC =     F    Hartree Fock is set to
   LHFONE  =     F    Hartree Fock one center treatment
   AEXX    =    0.0000 exact exchange contribution

 Linear response parameters
   LEPSILON=     F    determine dielectric tensor
   LRPA    =     F    only Hartree local field effects (RPA)
   LNABLA  =     F    use nabla operator in PAW spheres
   LVEL    =     F    velocity operator in full k-point grid
   CSHIFT  =0.1000    complex shift for real part using Kramers Kronig
   OMEGAMAX=  -1.0    maximum frequency
   DEG_THRESHOLD= 0.2000000E-02 threshold for treating states as degnerate
   RTIME   =   -0.100 relaxation time in fs
  (WPLASMAI=    0.000 imaginary part of plasma frequency in eV, 0.658/RTIME)
   DFIELD  = 0.0000000 0.0000000 0.0000000 field for delta impulse in time

  Optional k-point grid parameters
   LKPOINTS_OPT  =     F    use optional k-point grid
   KPOINTS_OPT_MODE=     1    mode for optional k-point grid

 Orbital magnetization related:
   ORBITALMAG=     F  switch on orbital magnetization
   LCHIMAG   =     F  perturbation theory with respect to B field
   DQ        =  0.001000  dq finite difference perturbation B field
   LLRAUG    =     F  two centre corrections for induced B field



--------------------------------------------------------------------------------------------------------


 Static calculation
 charge density and potential will be updated during run
 non-spin polarized calculation
 Conjugate gradient for all bands (Freysoldt, et al. PRB 79, 241103 (2009))
 preconditioned conjugated gradient                                        
 perform sub-space diagonalisation
    before iterative eigenvector-optimisation
 modified Broyden-mixing scheme, WC =      100.0
 initial mixing is a Kerker type mixing with AMIX =  0.4000 and BMIX =      1.0000
 Hartree-type preconditioning will be used
 using additional bands          302
 real space projection scheme for non local part
 use partial core corrections
 no Harris-corrections to forces 
 use gradient corrections 
 use of overlap-Matrix (Vanderbilt PP)
 Gauss-broadening in eV      SIGMA  =   0.05


--------------------------------------------------------------------------------------------------------


  energy-cutoff  :      520.00
  volume of cell :     9881.61
      direct lattice vectors                 reciprocal lattice vectors
    21.138852197  0.000000000  0.000000000     0.047306258  0.000000000  0.000000000
     0.000000000 21.138852197  0.000000000     0.000000000  0.047306258  0.000000000
     0.000000000  0.000000000 22.113885220     0.000000000  0.000000000  0.045220457

  length of vectors
    21.138852197 21.138852197 22.113885220     0.047306258  0.047306258  0.045220457



 k-points in units of 2pi/SCALE and weight: KPOINTS created by Atomic Simulation Env
   0.00000000  0.00000000  0.00000000       1.000

 k-points in reciprocal lattice and weights: KPOINTS created by Atomic Simulation Env
   0.00000000  0.00000000  0.00000000       1.000

 position of ions in fractional coordinates (direct lattice) 
   0.40000045  0.41742182  0.59066605
   0.48993089  0.48782840  0.60047932
   0.31007474  0.48782879  0.60047932
   0.40000518  0.49199024  0.66418761
   0.00000000  0.00000000  0.40698411
   0.10000000  0.10000000  0.40698411
   0.00000000  0.10000000  0.50257497
   0.10000000  0.00000000  0.50257497
   0.00000000  0.20000000  0.40698411
   0.10000000  0.30000000  0.40698411
   0.00000000  0.30000000  0.50257497
   0.10000000  0.20000000  0.50257497
   0.00000000  0.40000000  0.40698411
   0.10000000  0.50000000  0.40698411
   0.00000000  0.50000000  0.50257497
   0.10000000  0.40000000  0.50257497
   0.00000000  0.60000000  0.40698411
   0.10000000  0.70000000  0.40698411
   0.00000000  0.70000000  0.50257497
   0.10000000  0.60000000  0.50257497
   0.00000000  0.80000000  0.40698411
   0.10000000  0.90000000  0.40698411
   0.00000000  0.90000000  0.50257497
   0.10000000  0.80000000  0.50257497
   0.20000000  0.00000000  0.40698411
   0.30000000  0.10000000  0.40698411
   0.20000000  0.10000000  0.50257497
   0.30000000  0.00000000  0.50257497
   0.20000000  0.20000000  0.40698411
   0.30000000  0.30000000  0.40698411
   0.20000000  0.30000000  0.50257497
   0.30000000  0.20000000  0.50257497
   0.20000000  0.40000000  0.40698411
   0.30000000  0.50000000  0.40698411
   0.20000000  0.50000000  0.50257497
   0.30000000  0.40000000  0.50257497
   0.20000000  0.60000000  0.40698411
   0.30000000  0.70000000  0.40698411
   0.20000000  0.70000000  0.50257497
   0.30000000  0.60000000  0.50257497
   0.20000000  0.80000000  0.40698411
   0.30000000  0.90000000  0.40698411
   0.20000000  0.90000000  0.50257497
   0.30000000  0.80000000  0.50257497
   0.40000000  0.00000000  0.40698411
   0.50000000  0.10000000  0.40698411
   0.40000000  0.10000000  0.50257497
   0.50000000  0.00000000  0.50257497
   0.40000000  0.20000000  0.40698411
   0.50000000  0.30000000  0.40698411
   0.40000000  0.30000000  0.50257497
   0.50000000  0.20000000  0.50257497
   0.40000000  0.40000000  0.40698411
   0.50000000  0.50000000  0.40698411
   0.40000000  0.50000000  0.50257497
   0.50000000  0.40000000  0.50257497
   0.40000000  0.60000000  0.40698411
   0.50000000  0.70000000  0.40698411
   0.40000000  0.70000000  0.50257497
   0.50000000  0.60000000  0.50257497
   0.40000000  0.80000000  0.40698411
   0.50000000  0.90000000  0.40698411
   0.40000000  0.90000000  0.50257497
   0.50000000  0.80000000  0.50257497
   0.60000000  0.00000000  0.40698411
   0.70000000  0.10000000  0.40698411
   0.60000000  0.10000000  0.50257497
   0.70000000  0.00000000  0.50257497
   0.60000000  0.20000000  0.40698411
   0.70000000  0.30000000  0.40698411
   0.60000000  0.30000000  0.50257497
   0.70000000  0.20000000  0.50257497
   0.60000000  0.40000000  0.40698411
   0.70000000  0.50000000  0.40698411
   0.60000000  0.50000000  0.50257497
   0.70000000  0.40000000  0.50257497
   0.60000000  0.60000000  0.40698411
   0.70000000  0.70000000  0.40698411
   0.60000000  0.70000000  0.50257497
   0.70000000  0.60000000  0.50257497
   0.60000000  0.80000000  0.40698411
   0.70000000  0.90000000  0.40698411
   0.60000000  0.90000000  0.50257497
   0.70000000  0.80000000  0.50257497
   0.80000000  0.00000000  0.40698411
   0.90000000  0.10000000  0.40698411
   0.80000000  0.10000000  0.50257497
   0.90000000  0.00000000  0.50257497
   0.80000000  0.20000000  0.40698411
   0.90000000  0.30000000  0.40698411
   0.80000000  0.30000000  0.50257497
   0.90000000  0.20000000  0.50257497
   0.80000000  0.40000000  0.40698411
   0.90000000  0.50000000  0.40698411
   0.80000000  0.50000000  0.50257497
   0.90000000  0.40000000  0.50257497
   0.80000000  0.60000000  0.40698411
   0.90000000  0.70000000  0.40698411
   0.80000000  0.70000000  0.50257497
   0.90000000  0.60000000  0.50257497
   0.80000000  0.80000000  0.40698411
   0.90000000  0.90000000  0.40698411
   0.80000000  0.90000000  0.50257497
   0.90000000  0.80000000  0.50257497
   0.00000000  0.00000000  0.50257497
   0.10000000  0.10000000  0.50257497
   0.00000000  0.10000000  0.40698411
   0.10000000  0.00000000  0.40698411
   0.00000000  0.20000000  0.50257497
   0.10000000  0.30000000  0.50257497
   0.00000000  0.30000000  0.40698411
   0.10000000  0.20000000  0.40698411
   0.00000000  0.40000000  0.50257497
   0.10000000  0.50000000  0.50257497
   0.00000000  0.50000000  0.40698411
   0.10000000  0.40000000  0.40698411
   0.00000000  0.60000000  0.50257497
   0.10000000  0.70000000  0.50257497
   0.00000000  0.70000000  0.40698411
   0.10000000  0.60000000  0.40698411
   0.00000000  0.80000000  0.50257497
   0.10000000  0.90000000  0.50257497
   0.00000000  0.90000000  0.40698411
   0.10000000  0.80000000  0.40698411
   0.20000000  0.00000000  0.50257497
   0.30000000  0.10000000  0.50257497
   0.20000000  0.10000000  0.40698411
   0.30000000  0.00000000  0.40698411
   0.20000000  0.20000000  0.50257497
   0.30000000  0.30000000  0.50257497
   0.20000000  0.30000000  0.40698411
   0.30000000  0.20000000  0.40698411
   0.20000000  0.40000000  0.50257497
   0.30000000  0.50000000  0.50257497
   0.20000000  0.50000000  0.40698411
   0.30000000  0.40000000  0.40698411
   0.20000000  0.60000000  0.50257497
   0.30000000  0.70000000  0.50257497
   0.20000000  0.70000000  0.40698411
   0.30000000  0.60000000  0.40698411
   0.20000000  0.80000000  0.50257497
   0.30000000  0.90000000  0.50257497
   0.20000000  0.90000000  0.40698411
   0.30000000  0.80000000  0.40698411
   0.40000000  0.00000000  0.50257497
   0.50000000  0.10000000  0.50257497
   0.40000000  0.10000000  0.40698411
   0.50000000  0.00000000  0.40698411
   0.40000000  0.20000000  0.50257497
   0.50000000  0.30000000  0.50257497
   0.40000000  0.30000000  0.40698411
   0.50000000  0.20000000  0.40698411
   0.40000000  0.40000000  0.50257497
   0.50000000  0.50000000  0.50257497
   0.40000000  0.50000000  0.40698411
   0.50000000  0.40000000  0.40698411
   0.40000000  0.60000000  0.50257497
   0.50000000  0.70000000  0.50257497
   0.40000000  0.70000000  0.40698411
   0.50000000  0.60000000  0.40698411
   0.40000000  0.80000000  0.50257497
   0.50000000  0.90000000  0.50257497
   0.40000000  0.90000000  0.40698411
   0.50000000  0.80000000  0.40698411
   0.60000000  0.00000000  0.50257497
   0.70000000  0.10000000  0.50257497
   0.60000000  0.10000000  0.40698411
   0.70000000  0.00000000  0.40698411
   0.60000000  0.20000000  0.50257497
   0.70000000  0.30000000  0.50257497
   0.60000000  0.30000000  0.40698411
   0.70000000  0.20000000  0.40698411
   0.60000000  0.40000000  0.50257497
   0.70000000  0.50000000  0.50257497
   0.60000000  0.50000000  0.40698411
   0.70000000  0.40000000  0.40698411
   0.60000000  0.60000000  0.50257497
   0.70000000  0.70000000  0.50257497
   0.60000000  0.70000000  0.40698411
   0.70000000  0.60000000  0.40698411
   0.60000000  0.80000000  0.50257497
   0.70000000  0.90000000  0.50257497
   0.60000000  0.90000000  0.40698411
   0.70000000  0.80000000  0.40698411
   0.80000000  0.00000000  0.50257497
   0.90000000  0.10000000  0.50257497
   0.80000000  0.10000000  0.40698411
   0.90000000  0.00000000  0.40698411
   0.80000000  0.20000000  0.50257497
   0.90000000  0.30000000  0.50257497
   0.80000000  0.30000000  0.40698411
   0.90000000  0.20000000  0.40698411
   0.80000000  0.40000000  0.50257497
   0.90000000  0.50000000  0.50257497
   0.80000000  0.50000000  0.40698411
   0.90000000  0.40000000  0.40698411
   0.80000000  0.60000000  0.50257497
   0.90000000  0.70000000  0.50257497
   0.80000000  0.70000000  0.40698411
   0.90000000  0.60000000  0.40698411
   0.80000000  0.80000000  0.50257497
   0.90000000  0.90000000  0.50257497
   0.80000000  0.90000000  0.40698411
   0.90000000  0.80000000  0.40698411

 position of ions in cartesian coordinates  (Angst):
   8.45555035  8.82381816 13.06192134
  10.35657660 10.31213242 13.27893076
   6.55462410 10.31214064 13.27893076
   8.45565035 10.40010904 14.68776852
   0.00000000  0.00000000  9.00000000
   2.11388522  2.11388522  9.00000000
   0.00000000  2.11388522 11.11388522
   2.11388522  0.00000000 11.11388522
   0.00000000  4.22777044  9.00000000
   2.11388522  6.34165566  9.00000000
   0.00000000  6.34165566 11.11388522
   2.11388522  4.22777044 11.11388522
   0.00000000  8.45554088  9.00000000
   2.11388522 10.56942610  9.00000000
   0.00000000 10.56942610 11.11388522
   2.11388522  8.45554088 11.11388522
   0.00000000 12.68331132  9.00000000
   2.11388522 14.79719654  9.00000000
   0.00000000 14.79719654 11.11388522
   2.11388522 12.68331132 11.11388522
   0.00000000 16.91108176  9.00000000
   2.11388522 19.02496698  9.00000000
   0.00000000 19.02496698 11.11388522
   2.11388522 16.91108176 11.11388522
   4.22777044  0.00000000  9.00000000
   6.34165566  2.11388522  9.00000000
   4.22777044  2.11388522 11.11388522
   6.34165566  0.00000000 11.11388522
   4.22777044  4.22777044  9.00000000
   6.34165566  6.34165566  9.00000000
   4.22777044  6.34165566 11.11388522
   6.34165566  4.22777044 11.11388522
   4.22777044  8.45554088  9.00000000
   6.34165566 10.56942610  9.00000000
   4.22777044 10.56942610 11.11388522
   6.34165566  8.45554088 11.11388522
   4.22777044 12.68331132  9.00000000
   6.34165566 14.79719654  9.00000000
   4.22777044 14.79719654 11.11388522
   6.34165566 12.68331132 11.11388522
   4.22777044 16.91108176  9.00000000
   6.34165566 19.02496698  9.00000000
   4.22777044 19.02496698 11.11388522
   6.34165566 16.91108176 11.11388522
   8.45554088  0.00000000  9.00000000
  10.56942610  2.11388522  9.00000000
   8.45554088  2.11388522 11.11388522
  10.56942610  0.00000000 11.11388522
   8.45554088  4.22777044  9.00000000
  10.56942610  6.34165566  9.00000000
   8.45554088  6.34165566 11.11388522
  10.56942610  4.22777044 11.11388522
   8.45554088  8.45554088  9.00000000
  10.56942610 10.56942610  9.00000000
   8.45554088 10.56942610 11.11388522
  10.56942610  8.45554088 11.11388522
   8.45554088 12.68331132  9.00000000
  10.56942610 14.79719654  9.00000000
   8.45554088 14.79719654 11.11388522
  10.56942610 12.68331132 11.11388522
   8.45554088 16.91108176  9.00000000
  10.56942610 19.02496698  9.00000000
   8.45554088 19.02496698 11.11388522
  10.56942610 16.91108176 11.11388522
  12.68331132  0.00000000  9.00000000
  14.79719654  2.11388522  9.00000000
  12.68331132  2.11388522 11.11388522
  14.79719654  0.00000000 11.11388522
  12.68331132  4.22777044  9.00000000
  14.79719654  6.34165566  9.00000000
  12.68331132  6.34165566 11.11388522
  14.79719654  4.22777044 11.11388522
  12.68331132  8.45554088  9.00000000
  14.79719654 10.56942610  9.00000000
  12.68331132 10.56942610 11.11388522
  14.79719654  8.45554088 11.11388522
  12.68331132 12.68331132  9.00000000
  14.79719654 14.79719654  9.00000000
  12.68331132 14.79719654 11.11388522
  14.79719654 12.68331132 11.11388522
  12.68331132 16.91108176  9.00000000
  14.79719654 19.02496698  9.00000000
  12.68331132 19.02496698 11.11388522
  14.79719654 16.91108176 11.11388522
  16.91108176  0.00000000  9.00000000
  19.02496698  2.11388522  9.00000000
  16.91108176  2.11388522 11.11388522
  19.02496698  0.00000000 11.11388522
  16.91108176  4.22777044  9.00000000
  19.02496698  6.34165566  9.00000000
  16.91108176  6.34165566 11.11388522
  19.02496698  4.22777044 11.11388522
  16.91108176  8.45554088  9.00000000
  19.02496698 10.56942610  9.00000000
  16.91108176 10.56942610 11.11388522
  19.02496698  8.45554088 11.11388522
  16.91108176 12.68331132  9.00000000
  19.02496698 14.79719654  9.00000000
  16.91108176 14.79719654 11.11388522
  19.02496698 12.68331132 11.11388522
  16.91108176 16.91108176  9.00000000
  19.02496698 19.02496698  9.00000000
  16.91108176 19.02496698 11.11388522
  19.02496698 16.91108176 11.11388522
   0.00000000  0.00000000 11.11388522
   2.11388522  2.11388522 11.11388522
   0.00000000  2.11388522  9.00000000
   2.11388522  0.00000000  9.00000000
   0.00000000  4.22777044 11.11388522
   2.11388522  6.34165566 11.11388522
   0.00000000  6.34165566  9.00000000
   2.11388522  4.22777044  9.00000000
   0.00000000  8.45554088 11.11388522
   2.11388522 10.56942610 11.11388522
   0.00000000 10.56942610  9.00000000
   2.11388522  8.45554088  9.00000000
   0.00000000 12.68331132 11.11388522
   2.11388522 14.79719654 11.11388522
   0.00000000 14.79719654  9.00000000
   2.11388522 12.68331132  9.00000000
   0.00000000 16.91108176 11.11388522
   2.11388522 19.02496698 11.11388522
   0.00000000 19.02496698  9.00000000
   2.11388522 16.91108176  9.00000000
   4.22777044  0.00000000 11.11388522
   6.34165566  2.11388522 11.11388522
   4.22777044  2.11388522  9.00000000
   6.34165566  0.00000000  9.00000000
   4.22777044  4.22777044 11.11388522
   6.34165566  6.34165566 11.11388522
   4.22777044  6.34165566  9.00000000
   6.34165566  4.22777044  9.00000000
   4.22777044  8.45554088 11.11388522
   6.34165566 10.56942610 11.11388522
   4.22777044 10.56942610  9.00000000
   6.34165566  8.45554088  9.00000000
   4.22777044 12.68331132 11.11388522
   6.34165566 14.79719654 11.11388522
   4.22777044 14.79719654  9.00000000
   6.34165566 12.68331132  9.00000000
   4.22777044 16.91108176 11.11388522
   6.34165566 19.02496698 11.11388522
   4.22777044 19.02496698  9.00000000
   6.34165566 16.91108176  9.00000000
   8.45554088  0.00000000 11.11388522
  10.56942610  2.11388522 11.11388522
   8.45554088  2.11388522  9.00000000
  10.56942610  0.00000000  9.00000000
   8.45554088  4.22777044 11.11388522
  10.56942610  6.34165566 11.11388522
   8.45554088  6.34165566  9.00000000
  10.56942610  4.22777044  9.00000000
   8.45554088  8.45554088 11.11388522
  10.56942610 10.56942610 11.11388522
   8.45554088 10.56942610  9.00000000
  10.56942610  8.45554088  9.00000000
   8.45554088 12.68331132 11.11388522
  10.56942610 14.79719654 11.11388522
   8.45554088 14.79719654  9.00000000
  10.56942610 12.68331132  9.00000000
   8.45554088 16.91108176 11.11388522
  10.56942610 19.02496698 11.11388522
   8.45554088 19.02496698  9.00000000
  10.56942610 16.91108176  9.00000000
  12.68331132  0.00000000 11.11388522
  14.79719654  2.11388522 11.11388522
  12.68331132  2.11388522  9.00000000
  14.79719654  0.00000000  9.00000000
  12.68331132  4.22777044 11.11388522
  14.79719654  6.34165566 11.11388522
  12.68331132  6.34165566  9.00000000
  14.79719654  4.22777044  9.00000000
  12.68331132  8.45554088 11.11388522
  14.79719654 10.56942610 11.11388522
  12.68331132 10.56942610  9.00000000
  14.79719654  8.45554088  9.00000000
  12.68331132 12.68331132 11.11388522
  14.79719654 14.79719654 11.11388522
  12.68331132 14.79719654  9.00000000
  14.79719654 12.68331132  9.00000000
  12.68331132 16.91108176 11.11388522
  14.79719654 19.02496698 11.11388522
  12.68331132 19.02496698  9.00000000
  14.79719654 16.91108176  9.00000000
  16.91108176  0.00000000 11.11388522
  19.02496698  2.11388522 11.11388522
  16.91108176  2.11388522  9.00000000
  19.02496698  0.00000000  9.00000000
  16.91108176  4.22777044 11.11388522
  19.02496698  6.34165566 11.11388522
  16.91108176  6.34165566  9.00000000
  19.02496698  4.22777044  9.00000000
  16.91108176  8.45554088 11.11388522
  19.02496698 10.56942610 11.11388522
  16.91108176 10.56942610  9.00000000
  19.02496698  8.45554088  9.00000000
  16.91108176 12.68331132 11.11388522
  19.02496698 14.79719654 11.11388522
  16.91108176 14.79719654  9.00000000
  19.02496698 12.68331132  9.00000000
  16.91108176 16.91108176 11.11388522
  19.02496698 19.02496698 11.11388522
  16.91108176 19.02496698  9.00000000
  19.02496698 16.91108176  9.00000000



--------------------------------------------------------------------------------------------------------


 k-point   1 :   0.0000 0.0000 0.0000  plane waves:  265979

 maximum and minimum number of plane-waves per node :     66495    66494

 maximum number of plane-waves:    265979
 maximum index in each direction: 
   IXMAX=   39   IYMAX=   39   IZMAX=   41
   IXMIN=  -39   IYMIN=  -39   IZMIN=  -41


 real space projection operators:
  total allocation   :      58186.72 KBytes
  max/ min on nodes  :      14645.62      14387.53


 parallel 3D FFT for wavefunctions:
    minimum data exchange during FFTs selected (reduces bandwidth)
 parallel 3D FFT for charge:
    minimum data exchange during FFTs selected (reduces bandwidth)


 total amount of memory used by VASP MPI-rank0   169880. kBytes
=======================================================================

   base      :      30000. kBytes
   nonlr-proj:      40964. kBytes
   fftplans  :      35177. kBytes
   grid      :      50022. kBytes
   one-center:        793. kBytes
   wavefun   :      12924. kBytes

     INWAV:  cpu time      0.0000: real time      0.0000
 Broyden mixing: mesh for mixing (old mesh)
   NGX = 79   NGY = 79   NGZ = 83
[...]
   -.963E+01 -.128E+02 -.689E+03   0.971E+01 0.128E+02 0.694E+03   -.197E-01 -.669E-02 -.363E+01
   0.708E-01 -.497E+01 -.691E+03   0.195E-03 0.496E+01 0.696E+03   0.000E+00 0.115E-02 -.362E+01
   -.537E+01 -.469E+01 0.704E+03   0.545E+01 0.470E+01 -.708E+03   -.165E-01 -.224E-02 0.350E+01
   0.707E-01 -.867E+01 0.705E+03   0.219E-03 0.867E+01 -.709E+03   0.000E+00 -.746E-02 0.350E+01
 -----------------------------------------------------------------------------------------------
   0.866E+01 -.861E+01 0.107E+02   0.261E-11 0.227E-12 0.227E-10   0.888E-15 0.861E+01 -.113E+02


 POSITION                                       TOTAL-FORCE (eV/Angst)
 -----------------------------------------------------------------------------------
      8.45555      8.82382     13.06192        -0.000000     -0.071849     -0.076106
     10.35658     10.31213     13.27893         0.038353      0.011301     -0.084842
      6.55462     10.31214     13.27893        -0.038353      0.011301     -0.084842
      8.45565     10.40011     14.68777        -0.000000      0.043775      0.012796
      0.00000      0.00000      9.00000        -0.004314     -0.001796      0.382440
      2.11389      2.11389      9.00000        -0.012964     -0.008778      0.383806
      0.00000      2.11389     11.11389        -0.005608     -0.000384     -0.354061
      2.11389      0.00000     11.11389        -0.006176     -0.003281     -0.354382
      0.00000      4.22777      9.00000        -0.011352     -0.002826      0.385455
      2.11389      6.34166      9.00000        -0.043192     -0.009238      0.396705
      0.00000      6.34166     11.11389        -0.006160      0.003390     -0.344602
      2.11389      4.22777     11.11389        -0.018533      0.001167     -0.342685
      0.00000      8.45554      9.00000        -0.020984     -0.000368      0.391358
      2.11389     10.56943      9.00000        -0.074186      0.001681      0.411636
      0.00000     10.56943     11.11389        -0.001422     -0.000762     -0.338036
      2.11389      8.45554     11.11389        -0.007766      0.011587     -0.297117
      0.00000     12.68331      9.00000        -0.018907      0.002179      0.389834
      2.11389     14.79720      9.00000        -0.022512      0.014973      0.387432
      0.00000     14.79720     11.11389        -0.007149     -0.001608     -0.348815
      2.11389     12.68331     11.11389        -0.031512     -0.012197     -0.314426
      0.00000     16.91108      9.00000        -0.005853      0.002894      0.383535
      2.11389     19.02497      9.00000        -0.006223      0.001622      0.383287
      0.00000     19.02497     11.11389        -0.002842     -0.000532     -0.355516
      2.11389     16.91108     11.11389        -0.005518      0.003321     -0.349642
      4.22777      0.00000      9.00000        -0.008016     -0.008483      0.383518
      6.34166      2.11389      9.00000        -0.011258     -0.036035      0.386441
      4.22777      2.11389     11.11389        -0.012586     -0.012860     -0.347591
      6.34166      0.00000     11.11389        -0.004513     -0.011129     -0.351443
      4.22777      4.22777      9.00000        -0.035653     -0.034349      0.388457
      6.34166      6.34166      9.00000        -0.097392     -0.128278      0.385284
      4.22777      6.34166     11.11389        -0.052500      0.027066     -0.260704
      6.34166      4.22777     11.11389        -0.020941     -0.053475     -0.319376
      4.22777      8.45554      9.00000        -0.149720     -0.036632      0.430614
      6.34166     10.56943      9.00000        -0.139518      0.086043      0.108414
      4.22777     10.56943     11.11389        -0.426586     -0.039191     -0.196192
      6.34166      8.45554     11.11389        -0.759477     -0.427267     -0.040949
      4.22777     12.68331      9.00000        -0.078901      0.060016      0.385520
      6.34166     14.79720      9.00000        -0.013817      0.077895      0.409074
      4.22777     14.79720     11.11389        -0.003067      0.025009     -0.316701
      6.34166     12.68331     11.11389         0.020846      0.402260     -0.189742
      4.22777     16.91108      9.00000        -0.009692      0.018751      0.388022
      6.34166     19.02497      9.00000        -0.003994      0.003562      0.384944
      4.22777     19.02497     11.11389        -0.004864     -0.001117     -0.352056
      6.34166     16.91108     11.11389        -0.003282      0.005973     -0.340021
      8.45554      0.00000      9.00000        -0.000000     -0.015701      0.384406
     10.56943      2.11389      9.00000         0.011258     -0.036035      0.386441
      8.45554      2.11389     11.11389        -0.000000     -0.032816     -0.343451
     10.56943      0.00000     11.11389         0.004513     -0.011129     -0.351443
      8.45554      4.22777      9.00000        -0.000000     -0.109848      0.400041
     10.56943      6.34166      9.00000         0.097392     -0.128278      0.385284
      8.45554      6.34166     11.11389        -0.000000     -0.684695     -0.367050
     10.56943      4.22777     11.11389         0.020941     -0.053475     -0.319376
      8.45554      8.45554      9.00000        -0.000000     -0.088051     -0.109786
     10.56943     10.56943      9.00000         0.139518      0.086043      0.108414
      8.45554     10.56943     11.11389        -0.000000      0.995590     -0.173228
     10.56943      8.45554     11.11389         0.759477     -0.427267     -0.040949
      8.45554     12.68331      9.00000        -0.000000      0.179004      0.424774
     10.56943     14.79720      9.00000         0.013817      0.077895      0.409074
      8.45554     14.79720     11.11389        -0.000000      0.017466     -0.288250
     10.56943     12.68331     11.11389        -0.020846      0.402260     -0.189742
      8.45554     16.91108      9.00000        -0.000000      0.029685      0.390942
     10.56943     19.02497      9.00000         0.003994      0.003562      0.384944
      8.45554     19.02497     11.11389        -0.000000     -0.002306     -0.350064
     10.56943     16.91108     11.11389         0.003282      0.005973     -0.340021
     12.68331      0.00000      9.00000         0.008016     -0.008483      0.383518
     14.79720      2.11389      9.00000         0.012964     -0.008778      0.383806
     12.68331      2.11389     11.11389         0.012586     -0.012860     -0.347591
     14.79720      0.00000     11.11389         0.006176     -0.003281     -0.354382
     12.68331      4.22777      9.00000         0.035653     -0.034349      0.388457
     14.79720      6.34166      9.00000         0.043192     -0.009238      0.396705
     12.68331      6.34166     11.11389         0.052500      0.027066     -0.260704
     14.79720      4.22777     11.11389         0.018533      0.001167     -0.342685
     12.68331      8.45554      9.00000         0.149720     -0.036632      0.430614
     14.79720     10.56943      9.00000         0.074186      0.001681      0.411636
     12.68331     10.56943     11.11389         0.426586     -0.039191     -0.196192
     14.79720      8.45554     11.11389         0.007766      0.011587     -0.297117
     12.68331     12.68331      9.00000         0.078901      0.060016      0.385520
     14.79720     14.79720      9.00000         0.022512      0.014973      0.387432
     12.68331     14.79720     11.11389         0.003067      0.025009     -0.316701
     14.79720     12.68331     11.11389         0.031512     -0.012197     -0.314426
     12.68331     16.91108      9.00000         0.009692      0.018751      0.388022
     14.79720     19.02497      9.00000         0.006223      0.001622      0.383287
     12.68331     19.02497     11.11389         0.004864     -0.001117     -0.352056
     14.79720     16.91108     11.11389         0.005518      0.003321     -0.349642
     16.91108      0.00000      9.00000         0.004314     -0.001796      0.382440
     19.02497      2.11389      9.00000        -0.000000     -0.001549      0.383054
     16.91108      2.11389     11.11389         0.005608     -0.000384     -0.354061
     19.02497      0.00000     11.11389        -0.000000     -0.000528     -0.356294
     16.91108      4.22777      9.00000         0.011352     -0.002826      0.385455
     19.02497      6.34166      9.00000        -0.000000     -0.000221      0.386257
     16.91108      6.34166     11.11389         0.006160      0.003390     -0.344602
     19.02497      4.22777     11.11389        -0.000000      0.001544     -0.352581
     16.91108      8.45554      9.00000         0.020984     -0.000368      0.391358
     19.02497     10.56943      9.00000        -0.000000      0.000422      0.387869
     16.91108     10.56943     11.11389         0.001422     -0.000762     -0.338036
     19.02497      8.45554     11.11389        -0.000000      0.001570     -0.346782
     16.91108     12.68331      9.00000         0.018907      0.002179      0.389834
     19.02497     14.79720      9.00000        -0.000000      0.001322      0.384989
     16.91108     14.79720     11.11389         0.007149     -0.001608     -0.348815
     19.02497     12.68331     11.11389        -0.000000     -0.001487     -0.348447
     16.91108     16.91108      9.00000         0.005853      0.002894      0.383535
     19.02497     19.02497      9.00000        -0.000000      0.000136      0.382333
     16.91108     19.02497     11.11389         0.002842     -0.000532     -0.355516
     19.02497     16.91108     11.11389        -0.000000     -0.000988     -0.354497
      0.00000      0.00000     11.11389         0.004279      0.001905      0.446810
      2.11389      2.11389     11.11389         0.013027      0.007531      0.442197
      0.00000      2.11389      9.00000         0.007427      0.004123     -0.475247
      2.11389      0.00000      9.00000         0.008767      0.004724     -0.474882
      0.00000      4.22777     11.11389         0.007771      0.000193      0.440734
      2.11389      6.34166     11.11389         0.026593      0.000998      0.414954
      0.00000      6.34166      9.00000         0.014246      0.003143     -0.480707
      2.11389      4.22777      9.00000         0.026188      0.013693     -0.480193
      0.00000      8.45554     11.11389         0.008778     -0.002027      0.428050
      2.11389     10.56943     11.11389         0.031763      0.006621      0.380656
      0.00000     10.56943      9.00000         0.016469     -0.000893     -0.485189
      2.11389      8.45554      9.00000         0.048722      0.010292     -0.499833
      0.00000     12.68331     11.11389         0.009139      0.001852      0.432313
      2.11389     14.79720     11.11389         0.022515     -0.015000      0.430631
      0.00000     14.79720      9.00000         0.011288     -0.005705     -0.477920
      2.11389     12.68331      9.00000         0.046430     -0.019234     -0.485752
      0.00000     16.91108     11.11389         0.005449     -0.001789      0.444270
      2.11389     19.02497     11.11389         0.006019      0.000125      0.444834
      0.00000     19.02497      9.00000         0.004544     -0.000587     -0.474548
      2.11389     16.91108      9.00000         0.012136     -0.009156     -0.477244
      4.22777      0.00000     11.11389         0.008568      0.007648      0.443354
      6.34166      2.11389     11.11389         0.013542      0.027244      0.434450
      4.22777      2.11389      9.00000         0.019246      0.020232     -0.477336
      6.34166      0.00000      9.00000         0.006784      0.012185     -0.476006
      4.22777      4.22777     11.11389         0.043079      0.031506      0.421730
      6.34166      6.34166     11.11389         0.224442      0.135567      0.332161
      4.22777      6.34166      9.00000         0.087062      0.046664     -0.493043
      6.34166      4.22777      9.00000         0.042074      0.068119     -0.483523
      4.22777      8.45554     11.11389         0.086822      0.056115      0.241941
      6.34166     10.56943     11.11389        -0.107165      0.062210      0.309415
      4.22777     10.56943      9.00000         0.183056     -0.023099     -0.436929
      6.34166      8.45554      9.00000         0.266715      0.133955     -0.293253
      4.22777     12.68331     11.11389         0.120189     -0.098640      0.370683
      6.34166     14.79720     11.11389         0.011744     -0.043988      0.388745
      4.22777     14.79720      9.00000         0.033376     -0.043111     -0.485097
      6.34166     12.68331      9.00000         0.057879     -0.185862     -0.428579
      4.22777     16.91108     11.11389         0.008048     -0.009476      0.434502
      6.34166     19.02497     11.11389         0.003981      0.000133      0.440646
      4.22777     19.02497      9.00000         0.007967     -0.001952     -0.476236
      6.34166     16.91108      9.00000         0.008065     -0.021361     -0.482936
      8.45554      0.00000     11.11389        -0.000000      0.012861      0.440935
     10.56943      2.11389     11.11389        -0.013542      0.027244      0.434450
      8.45554      2.11389      9.00000        -0.000000      0.038040     -0.477573
     10.56943      0.00000      9.00000        -0.006784      0.012185     -0.476006
      8.45554      4.22777     11.11389        -0.000000      0.084606      0.411823
     10.56943      6.34166     11.11389        -0.224442      0.135567      0.332161
      8.45554      6.34166      9.00000        -0.000000      0.264638     -0.354741
     10.56943      4.22777      9.00000        -0.042074      0.068119     -0.483523
      8.45554      8.45554     11.11389        -0.000000     -0.405646      0.382495
     10.56943     10.56943     11.11389         0.107165      0.062210      0.309415
      8.45554     10.56943      9.00000        -0.000000     -0.242431     -0.208520
     10.56943      8.45554      9.00000        -0.266715      0.133955     -0.293253
      8.45554     12.68331     11.11389        -0.000000     -0.139128      0.208290
     10.56943     14.79720     11.11389        -0.011744     -0.043988      0.388745
      8.45554     14.79720      9.00000        -0.000000     -0.067110     -0.500692
     10.56943     12.68331      9.00000        -0.057879     -0.185862     -0.428579
      8.45554     16.91108     11.11389        -0.000000     -0.014148      0.427584
     10.56943     19.02497     11.11389        -0.003981      0.000133      0.440646
      8.45554     19.02497      9.00000        -0.000000     -0.002385     -0.477371
     10.56943     16.91108      9.00000        -0.008065     -0.021361     -0.482936
     12.68331      0.00000     11.11389        -0.008568      0.007648      0.443354
     14.79720      2.11389     11.11389        -0.013027      0.007531      0.442197
     12.68331      2.11389      9.00000        -0.019246      0.020232     -0.477336
     14.79720      0.00000      9.00000        -0.008767      0.004724     -0.474882
     12.68331      4.22777     11.11389        -0.043079      0.031506      0.421730
     14.79720      6.34166     11.11389        -0.026593      0.000998      0.414954
     12.68331      6.34166      9.00000        -0.087062      0.046664     -0.493043
     14.79720      4.22777      9.00000        -0.026188      0.013693     -0.480193
     12.68331      8.45554     11.11389        -0.086822      0.056115      0.241941
     14.79720     10.56943     11.11389        -0.031763      0.006621      0.380656
     12.68331     10.56943      9.00000        -0.183056     -0.023099     -0.436929
     14.79720      8.45554      9.00000        -0.048722      0.010292     -0.499833
     12.68331     12.68331     11.11389        -0.120189     -0.098640      0.370683
     14.79720     14.79720     11.11389        -0.022515     -0.015000      0.430631
     12.68331     14.79720      9.00000        -0.033376     -0.043111     -0.485097
     14.79720     12.68331      9.00000        -0.046430     -0.019234     -0.485752
     12.68331     16.91108     11.11389        -0.008048     -0.009476      0.434502
     14.79720     19.02497     11.11389        -0.006019      0.000125      0.444834
     12.68331     19.02497      9.00000        -0.007967     -0.001952     -0.476236
     14.79720     16.91108      9.00000        -0.012136     -0.009156     -0.477244
     16.91108      0.00000     11.11389        -0.004279      0.001905      0.446810
     19.02497      2.11389     11.11389        -0.000000      0.000739      0.445956
     16.91108      2.11389      9.00000        -0.007427      0.004123     -0.475247
     19.02497      0.00000      9.00000        -0.000000      0.001519     -0.474205
     16.91108      4.22777     11.11389        -0.007771      0.000193      0.440734
     19.02497      6.34166     11.11389        -0.000000     -0.002049      0.439464
     16.91108      6.34166      9.00000        -0.014246      0.003143     -0.480707
     19.02497      4.22777      9.00000        -0.000000      0.002021     -0.476355
     16.91108      8.45554     11.11389        -0.008778     -0.002027      0.428050
     19.02497     10.56943     11.11389        -0.000000      0.000385      0.435902
     16.91108     10.56943      9.00000        -0.016469     -0.000893     -0.485189
     19.02497      8.45554      9.00000        -0.000000      0.000098     -0.480164
     16.91108     12.68331     11.11389        -0.009139      0.001852      0.432313
     19.02497     14.79720     11.11389        -0.000000      0.000677      0.442195
     16.91108     14.79720      9.00000        -0.011288     -0.005705     -0.477920
     19.02497     12.68331      9.00000        -0.000000     -0.001549     -0.478973
     16.91108     16.91108     11.11389        -0.005449     -0.001789      0.444270
     19.02497     19.02497     11.11389        -0.000000      0.000356      0.447194
     16.91108     19.02497      9.00000        -0.004544     -0.000587     -0.474548
     19.02497     16.91108      9.00000        -0.000000     -0.001982     -0.475174
 -----------------------------------------------------------------------------------
    total drift:                                8.658435     -0.004199     -0.594028


--------------------------------------------------------------------------------------------------------



  FREE ENERGIE OF THE ION-ELECTRON SYSTEM (eV)
  ---------------------------------------------------
  free  energy   TOTEN  =     -1178.15265240 eV

  energy  without entropy=    -1178.15265240  energy(sigma->0) =    -1178.15265240



--------------------------------------------------------------------------------------------------------


    POTLOK:  cpu time      1.0156: real time      1.0156


--------------------------------------------------------------------------------------------------------


     LOOP+:  cpu time    406.2971: real time    406.9200
    4ORBIT:  cpu time      0.0000: real time      0.0000

 total amount of memory used by VASP MPI-rank0   169880. kBytes
=======================================================================

   base      :      30000. kBytes
   nonlr-proj:      40964. kBytes
   fftplans  :      35177. kBytes
   grid      :      50022. kBytes
   one-center:        793. kBytes
   wavefun   :      12924. kBytes

  
  
 General timing and accounting informations for this job:
 ========================================================
  
                  Total CPU time used (sec):      519.875
                            User time (sec):      514.036
                          System time (sec):        5.839
                         Elapsed time (sec):      528.221
  
                   Maximum memory used (kb):      413400.
                   Average memory used (kb):          N/A
  
                          Minor page faults:       134253
                          Major page faults:           49
                 Voluntary context switches:        25526
