 vasp.6.3.0 20Jan22 (build Apr  1 2022 16:44:48) complex                         
 executed on        HPECrayEX_GCC date 2022.11.19  19:38:10
 running 2048 mpi-ranks, with    1 threads/rank
 distrk:  each k-point on 1024 cores,    2 groups
 distr:  one band on NCORE=   4 cores,  256 groups


--------------------------------------------------------------------------------------------------------


 INCAR:
   SYSTEM = MgO-rocksalt
   ISMEAR = 0
   SIGMA = 0.05
   EDIFF = 1E-6
   ALGO = ALL
   ISTART = 0
   IBRION = -1
   NSW = 0
   ISYM = 2
   DIPOL = 0.5 0.5 0.5
   IDIPOL = 3
   LDIPOL = .TRUE.
   LHFCALC = .TRUE.
   GGA = B5
   AEXX = 0.2
   AGGAX = 0.72
   AGGAC = 0.81
   ALDAC = 0.19
   IVDW = 1
   VDW_S6 = 1.05
   ENCUT = 520
   PREC = Accurate
   LASPH = .TRUE.
   LREAL = Auto
   ISPIN = 1
   NELM = 200
   NELMIN = 8
   NCORE = 4
   KPAR = 2
   LWAVE = .FALSE.
   LCHARG = .FALSE.

 POTCAR:    PAW_PBE Cu 22Jun2005                  
 -----------------------------------------------------------------------------
|                                                                             |
|           W    W    AA    RRRRR   N    N  II  N    N   GGGG   !!!           |
|           W    W   A  A   R    R  NN   N  II  NN   N  G    G  !!!           |
|           W    W  A    A  R    R  N N  N  II  N N  N  G       !!!           |
|           W WW W  AAAAAA  RRRRR   N  N N  II  N  N N  G  GGG   !            |
|           WW  WW  A    A  R   R   N   NN  II  N   NN  G    G                |
|           W    W  A    A  R    R  N    N  II  N    N   GGGG   !!!           |
|                                                                             |
|     You have selected ISYM=2 for a HF type calculation. This will           |
|     symmetrize the charge density but not the exchange potential. I         |
|     suggest to use ISYM=3 instead. This uses symmetry to obtain the         |
|     orbitals at all k-points in the Brillouin zone, but does not apply      |
|     symmetry to the Hartree potential directly. The resultant charge        |
|     might have lower symmetry than the crystal but, at least, Hartree       |
|     and exchange are fully compatible.                                      |
|                                                                             |
 -----------------------------------------------------------------------------

 POTCAR:    PAW_PBE Cu 22Jun2005                  
   SHA256 =  0e71e558f37a4e8407882b4609ceaae59938afaad9ced71dfe8490308a0ab630 Cu/POTCAR             
   COPYR  = (c) Copyright 22Jun2005 Georg Kresse                                                    
   COPYR  = This file is part of the software VASP. Any use, copying, and all other rights are regul
   COPYR  = If you do not have a valid VASP license, you may not use, copy or distribute this file. 
   VRHFIN =Cu: d10 p1                                                                               
   LEXCH  = PE                                                                                      
   EATOM  =  1390.9808 eV,  102.2342 Ry                                                             
                                                                                                    
   TITEL  = PAW_PBE Cu 22Jun2005                                                                    
   LULTRA =        F    use ultrasoft PP ?                                                          
   IUNSCR =        1    unscreen: 0-lin 1-nonlin 2-no                                               
   RPACOR =    2.000    partial core radius                                                         
   POMASS =   63.546; ZVAL   =   11.000    mass and valenz                                          
   RCORE  =    2.300    outmost cutoff radius                                                       
   RWIGS  =    2.200; RWIGS  =    1.164    wigner-seitz radius (au A)                               
   ENMAX  =  295.446; ENMIN  =  221.585 eV                                                          
   ICORE  =        3    local potential                                                             
   LCOR   =        T    correct aug charges                                                         
   LPAW   =        T    paw PP                                                                      
   EAUG   =  586.980                                                                                
   DEXC   =    0.000                                                                                
   RMAX   =    2.344    core radius for proj-oper                                                   
   RAUG   =    1.300    factor for augmentation sphere                                              
   RDEP   =    2.302    radius for radial grids                                                     
   RDEPT  =    1.771    core radius for aug-charge                                                  
                                                                                                    
   Atomic configuration                                                                             
    9 entries                                                                                       
     n  l   j            E        occ.                                                              
     1  0  0.50     -8850.2468   2.0000                                                             
     2  0  0.50     -1062.3498   2.0000                                                             
     2  1  1.50      -916.8226   6.0000                                                             
     3  0  0.50      -114.6929   2.0000                                                             
     3  1  1.50       -72.1325   6.0000                                                             
     3  2  2.50        -5.0394  10.0000                                                             
     4  0  0.50        -4.6097   1.0000                                                             
     4  1  0.50        -4.0817   0.0000                                                             
     4  3  2.50        -1.3606   0.0000                                                             
   Description                                                                                      
     l       E           TYP  RCUT    TYP  RCUT                                                     
     2     -5.0393973     23  2.200                                                                 
     2     10.8846608     23  2.200                                                                 
     0     -4.6097109     23  2.200                                                                 
     0      8.2520465     23  2.200                                                                 
     1     -2.7211652     23  2.200                                                                 
     1     21.7055443     23  2.200                                                                 
     3      2.7211652     23  2.300                                                                 
  local pseudopotential read in
  partial core-charges read in
  partial kinetic energy density read in
  atomic valenz-charges read in
  non local Contribution for L=           2  read in
    real space projection operators read in
  non local Contribution for L=           2  read in
    real space projection operators read in
  non local Contribution for L=           0  read in
    real space projection operators read in
  non local Contribution for L=           0  read in
    real space projection operators read in
  non local Contribution for L=           1  read in
    real space projection operators read in
  non local Contribution for L=           1  read in
    real space projection operators read in
    PAW grid and wavefunctions read in

   number of l-projection  operators is LMAX  =           6
   number of lm-projection operators is LMMAX =          18

 -----------------------------------------------------------------------------
|                                                                             |
|               ----> ADVICE to this user running VASP <----                  |
|                                                                             |
|     You have a (more or less) 'small supercell' and for smaller cells       |
|     it is recommended to use the reciprocal-space projection scheme!        |
|     The real-space optimization is not efficient for small cells and it     |
|     is also less accurate ...                                               |
|     Therefore, set LREAL=.FALSE. in the INCAR file.                         |
|                                                                             |
 -----------------------------------------------------------------------------

 Optimization of the real space projectors (new method)

 maximal supplied QI-value         = 16.25
 optimisation between [QCUT,QGAM] = [ 11.54, 23.24] = [ 37.28,151.24] Ry 
 Optimized for a Real-space Cutoff    1.53 Angstroem

   l    n(q)    QCUT    max X(q) W(low)/X(q) W(high)/X(q)  e(spline) 
   2     10    11.539     4.610    0.96E-04    0.13E-03    0.19E-06
   2     10    11.539     8.522    0.16E-03    0.21E-03    0.28E-06
   0     11    11.539    51.609    0.45E-04    0.31E-04    0.11E-06
   0     11    11.539    27.747    0.39E-04    0.29E-04    0.10E-06
   1     10    11.539    20.408    0.70E-05    0.38E-04    0.18E-06
   1     10    11.539    13.425    0.66E-05    0.34E-04    0.17E-06
 -----------------------------------------------------------------------------
|                                                                             |
|               ----> ADVICE to this user running VASP <----                  |
|                                                                             |
|     You enforced a specific xc type in the INCAR file but a different       |
|     type was found in the POTCAR file.                                      |
|     I HOPE YOU KNOW WHAT YOU ARE DOING!                                     |
|                                                                             |
 -----------------------------------------------------------------------------

  PAW_PBE Cu 22Jun2005                  :
 energy of atom  1       EATOM=-1390.9808
 kinetic energy error for atom=    0.0037 (will be added to EATOM!!)


 POSCAR: Cu
  positions in direct lattice
  No initial velocities read in
 exchange correlation table for  LEXCH =       12
   RHO(1)=    0.500       N(1)  =     2000
   RHO(2)=  100.500       N(2)  =     4000



--------------------------------------------------------------------------------------------------------


 ion  position               nearest neighbor table
   1  0.487  0.413  0.634-   2 2.23
   2  0.413  0.487  0.634-   1 2.23

  LATTYP: Found a simple tetragonal cell.
 ALAT       =    21.1388521970
 C/A-ratio  =     1.0461251639
  
  Lattice vectors:
  
 A1 = (  21.1388521970,   0.0000000000,   0.0000000000)
 A2 = (   0.0000000000,  21.1388521970,   0.0000000000)
 A3 = (   0.0000000000,   0.0000000000,  22.1138852197)


Analysis of symmetry for initial positions (statically):
=====================================================================
 Subroutine PRICEL returns:
 Original cell was already a primitive cell.
 

 Routine SETGRP: Setting up the symmetry group for a 
 simple tetragonal supercell.


 Subroutine GETGRP returns: Found  8 space group operations
 (whereof  2 operations were pure point group operations)
 out of a pool of 16 trial point group operations.


The static configuration has the point symmetry C_1h.
 The point group associated with its full space group is D_2h.


Analysis of symmetry for dynamics (positions and initial velocities):
=====================================================================
 Subroutine PRICEL returns:
 Original cell was already a primitive cell.
 

 Routine SETGRP: Setting up the symmetry group for a 
 simple tetragonal supercell.


 Subroutine GETGRP returns: Found  8 space group operations
 (whereof  2 operations were pure point group operations)
 out of a pool of 16 trial point group operations.


The dynamic configuration has the point symmetry C_1h.
 The point group associated with its full space group is D_2h.


 Subroutine INISYM returns: Found  8 space group operations
 (whereof  2 operations are pure point group operations),
 and found     1 'primitive' translations


----------------------------------------------------------------------------------------

                                     Primitive cell                                     

  volume of cell :    9881.6133

  direct lattice vectors                    reciprocal lattice vectors
    21.138852197  0.000000000  0.000000000     0.047306258  0.000000000  0.000000000
     0.000000000 21.138852197  0.000000000     0.000000000  0.047306258  0.000000000
     0.000000000  0.000000000 22.113885220     0.000000000  0.000000000  0.045220457

  length of vectors
    21.138852197 21.138852197 22.113885220     0.047306258  0.047306258  0.045220457

  position of ions in fractional coordinates (direct lattice)
     0.487233885  0.412766122  0.633890230
     0.412766091  0.487233915  0.633890230

  ion indices of the primitive-cell ions
   primitive index   ion index
                 1           1
                 2           2

----------------------------------------------------------------------------------------



 KPOINTS: KPOINTS created by Atomic Simulation Env

Automatic generation of k-mesh.
 Grid dimensions read from file:
 generate k-points for:    1    1    1

 Generating k-lattice:

  Cartesian coordinates                     Fractional coordinates (reciprocal lattice)
     0.047306258  0.000000000  0.000000000     1.000000000  0.000000000  0.000000000
     0.000000000  0.047306258  0.000000000     0.000000000  1.000000000  0.000000000
     0.000000000  0.000000000  0.045220457     0.000000000  0.000000000  1.000000000

  Length of vectors
     0.047306258  0.047306258  0.045220457

  Shift w.r.t. Gamma in fractional coordinates (k-lattice)
     0.000000000  0.000000000  0.000000000

 
 Subroutine IBZKPT returns following result:
 ===========================================
 
 Found      1 irreducible k-points:
 
 Following reciprocal coordinates:
            Coordinates               Weight
  0.000000  0.000000  0.000000      1.000000
 
 Following cartesian coordinates:
            Coordinates               Weight
  0.000000  0.000000  0.000000      1.000000
 
 
 Subroutine IBZKPT_HF returns following result:
 ==============================================
 
 Found      1 k-points in 1st BZ
 the following      1 k-points will be used (e.g. in the exchange kernel)
 Following reciprocal coordinates:   # in IRBZ
  0.000000  0.000000  0.000000    1.00000000   1 t-inv F


--------------------------------------------------------------------------------------------------------




 Dimension of arrays:
   k-points           NKPTS =      1   k-points in BZ     NKDIM =      1   number of bands    NBANDS=    256
   number of dos      NEDOS =    301   number of ions     NIONS =      2
   non local maximal  LDIM  =      6   non local SUM 2l+1 LMDIM =     18
   total plane-waves  NPLWV = ******
   max r-space proj   IRMAX =   6628   max aug-charges    IRDMAX=  12805
   dimension x,y,z NGX =   160 NGY =  160 NGZ =  168
   dimension x,y,z NGXF=   320 NGYF=  320 NGZF=  336
   support grid    NGXF=   320 NGYF=  320 NGZF=  336
   ions per type =               2
   NGX,Y,Z   is equivalent  to a cutoff of  12.58, 12.58, 12.63 a.u.
   NGXF,Y,Z  is equivalent  to a cutoff of  25.17, 25.17, 25.26 a.u.

 SYSTEM =  MgO-rocksalt                            
 POSCAR =  Cu                                      

 Startparameter for this run:
   NWRITE =      2    write-flag & timer
   PREC   = accura    normal or accurate (medium, high low for compatibility)
   ISTART =      0    job   : 0-new  1-cont  2-samecut
   ICHARG =      2    charge: 1-file 2-atom 10-const
   ISPIN  =      1    spin polarized calculation?
   LNONCOLLINEAR =      F non collinear calculations
   LSORBIT =      F    spin-orbit coupling
   INIWAV =      1    electr: 0-lowe 1-rand  2-diag
   LASPH  =      T    aspherical Exc in radial PAW
 Electronic Relaxation 1
   ENCUT  =  520.0 eV  38.22 Ry    6.18 a.u.  39.30 39.30 41.12*2*pi/ulx,y,z
   ENINI  =  520.0     initial cutoff
   ENAUG  =  587.0 eV  augmentation charge cutoff
   NELM   =    200;   NELMIN=  8; NELMDL= -5     # of ELM steps 
   EDIFF  = 0.1E-05   stopping-criterion for ELM
   LREAL  =      T    real-space projection
   NLSPLINE    = F    spline interpolate recip. space projectors
   LCOMPAT=      F    compatible to vasp.4.4
   GGA_COMPAT  = T    GGA compatible to vasp.4.4-vasp.4.6
   LMAXPAW     = -100 max onsite density
   LMAXMIX     =    2 max onsite mixed and CHGCAR
   VOSKOWN=      0    Vosko Wilk Nusair interpolation
   ROPT   =   -0.00025
 Ionic relaxation
   EDIFFG = 0.1E-04   stopping-criterion for IOM
   NSW    =      0    number of steps for IOM
   NBLOCK =      1;   KBLOCK =      1    inner block; outer block 
   IBRION =     -1    ionic relax: 0-MD 1-quasi-New 2-CG
   NFREE  =      0    steps in history (QN), initial steepest desc. (CG)
   ISIF   =      0    stress and relaxation
   IWAVPR =     10    prediction:  0-non 1-charg 2-wave 3-comb
   ISYM   =      2    0-nonsym 1-usesym 2-fastsym
   LCORR  =      T    Harris-Foulkes like correction to forces

   POTIM  = 0.5000    time-step for ionic-motion
   TEIN   =    0.0    initial temperature
   TEBEG  =    0.0;   TEEND  =   0.0 temperature during run
   SMASS  =  -3.00    Nose mass-parameter (am)
   estimated Nose-frequenzy (Omega)   =  0.10E-29 period in steps = 0.13E+47 mass=  -0.102E-25a.u.
   SCALEE = 1.0000    scale energy and forces
   NPACO  =    256;   APACO  = 10.0  distance and # of slots for P.C.
   PSTRESS=    0.0 pullay stress

  Mass of Ions in am
   POMASS =  63.55
  Ionic Valenz
   ZVAL   =  11.00
  Atomic Wigner-Seitz radii
   RWIGS  =  -1.00
  virtual crystal weights 
   VCA    =   1.00
   NELECT =      22.0000    total number of electrons
   NUPDOWN=      -1.0000    fix difference up-down

 DOS related values:
   EMIN   =  10.00;   EMAX   =-10.00  energy-range for DOS
   EFERMI =   0.00
   ISMEAR =     0;   SIGMA  =   0.05  broadening in eV -4-tet -1-fermi 0-gaus

 Electronic relaxation 2 (details)
   IALGO  =     58    algorithm
   LDIAG  =      T    sub-space diagonalisation (order eigenvalues)
   LSUBROT=      F    optimize rotation matrix (better conditioning)
   TURBO    =      0    0=normal 1=particle mesh
   IRESTART =      0    0=no restart 2=restart with 2 vectors
   NREBOOT  =      0    no. of reboots
   NMIN     =      0    reboot dimension
   EREF     =   0.00    reference energy to select bands
   IMIX   =      4    mixing-type and parameters
     AMIX     =   0.40;   BMIX     =  1.00
     AMIX_MAG =   1.60;   BMIX_MAG =  1.00
     AMIN     =   0.10
     WC   =   100.;   INIMIX=   1;  MIXPRE=   1;  MAXMIX= -45

 Intra band minimization:
   WEIMIN = 0.0000     energy-eigenvalue tresh-hold
   EBREAK =  0.98E-09  absolut break condition
   DEPER  =   0.30     relativ break condition  

   TIME   =   0.40     timestep for ELM

  volume/ion in A,a.u.               =    4940.81     33342.21
  Fermi-wavevector in a.u.,A,eV,Ry     =   0.213767  0.403960  0.621734  0.045696
  Thomas-Fermi vector in A             =   0.985879

 Write flags
   LWAVE        =      F    write WAVECAR
   LDOWNSAMPLE  =      F    k-point downsampling of WAVECAR
   LCHARG       =      F    write CHGCAR
   LVTOT        =      F    write LOCPOT, total local potential
   LVHAR        =      F    write LOCPOT, Hartree potential only
   LELF         =      F    write electronic localiz. function (ELF)
   LORBIT       =      0    0 simple, 1 ext, 2 COOP (PROOUT), +10 PAW based schemes


 Dipole corrections
   LMONO  =      F    monopole corrections only (constant potential shift)
   LDIPOL =      T    correct potential (dipole corrections)
   IDIPOL =      3    1-x, 2-y, 3-z, 4-all directions 
   EPSILON=  1.0000000 bulk dielectric constant

 Exchange correlation treatment:
   GGA     =    B5    GGA type
   LEXCH   =    12    internal setting for exchange type
   LIBXC   =     F    Libxc                    
   VOSKOWN =     0    Vosko Wilk Nusair interpolation
   EXXOEP  =     0    0=HF, 1=EXX-LHF (local Hartree Fock) 2=EXX OEP
   LHFCALC =     T    Hartree Fock is set to
   LSYMGRAD=     F    symmetrize gradient (conserves proper symmetry)
   PRECFOCK=normal    Normal, Fast or Accurate (Low or Medium for compatibility)
   LRHFCALC=     F    long range Hartree Fock
   LRSCOR  =     F    long range correlation only (use DFT for short range part)
   LTHOMAS =     F    Thomas Fermi screening in HF
   LMODELHF=     F    short range full HF, long range fraction AEXX
   LFOCKACE=     T    use Adeptively-Compressed-Exchange operator
   ENCUT4O =  -1.0   cutoff for four orbital integrals eV
   LMAXFOCK=     4    L truncation for augmentation on plane wave grid
   LMAXFOCKAE=  -1    L truncation for all-electron charge restoration on plane wave grid
   NMAXFOCKAE=   1    number of basis functions for all-electron charge restoration
   LFOCKAEDFT=     F  apply the AE augmentation even for DFT
   NKREDX  =     1    reduce k-point grid by
   NKREDY  =     1    reduce k-point grid by
   NKREDZ  =     1    reduce k-point grid by
   SHIFTRED=     F    shift reduced grid of Gamma
   HFKIDENT=     F    idential grid for each k-point
   ODDONLY =     F    use only odd q-grid points
   EVENONLY=     F    use only even q-grid points
   HFALPHA =   -1.0000 decay constant for conv. correction
   MCALPHA =    0.0000 extent of test-charge in conv. correction in multipole expansion
   AEXX    =    0.2000 exact exchange contribution
   HFSCREEN=    0.0000 screening length (either q_TF or 0.3 A-1)
   HFSCREENC=   0.0000 screening length for correlation (either q_TF or 0.3 A-1)
   HFRCUT  =    0.0000 spherical cutoff for potential kernel
   ALDAX   =    0.8000 LDA exchange part
   AGGAX   =    0.7200 GGA exchange part
   ALDAC   =    0.1900 LDA correlation
   AGGAC   =    0.8100 GGA correlation
   ENCUTFOCK=  -1.0 apply spherical cutoff to Coloumb kernel
   NBANDSGWLOW=     1    first orbital included in HF term
   NBLOCK_FOCK=    64    blocking factor in FOCK_ACC

 Linear response parameters
   LEPSILON=     F    determine dielectric tensor
   LRPA    =     F    only Hartree local field effects (RPA)
   LNABLA  =     F    use nabla operator in PAW spheres
   LVEL    =     F    velocity operator in full k-point grid
   CSHIFT  =0.1000    complex shift for real part using Kramers Kronig
   OMEGAMAX=  -1.0    maximum frequency
   DEG_THRESHOLD= 0.2000000E-02 threshold for treating states as degnerate
   RTIME   =   -0.100 relaxation time in fs
  (WPLASMAI=    0.000 imaginary part of plasma frequency in eV, 0.658/RTIME)
   DFIELD  = 0.0000000 0.0000000 0.0000000 field for delta impulse in time

  Optional k-point grid parameters
   LKPOINTS_OPT  =     F    use optional k-point grid
   KPOINTS_OPT_MODE=     1    mode for optional k-point grid

 Orbital magnetization related:
   ORBITALMAG=     F  switch on orbital magnetization
   LCHIMAG   =     F  perturbation theory with respect to B field
   DQ        =  0.001000  dq finite difference perturbation B field
   LLRAUG    =     F  two centre corrections for induced B field



--------------------------------------------------------------------------------------------------------


 Static calculation
 charge density and potential will be updated during run
 non-spin polarized calculation
 Conjugate gradient for all bands (Freysoldt, et al. PRB 79, 241103 (2009))
 preconditioned conjugated gradient                                        
 perform sub-space diagonalisation
    before iterative eigenvector-optimisation
 modified Broyden-mixing scheme, WC =      100.0
 initial mixing is a Kerker type mixing with AMIX =  0.4000 and BMIX =      1.0000
 Hartree-type preconditioning will be used
 using additional bands          245
 real space projection scheme for non local part
 use partial core corrections
 no Harris-corrections to forces 
 use gradient corrections 
 use of overlap-Matrix (Vanderbilt PP)
 Gauss-broadening in eV      SIGMA  =   0.05


--------------------------------------------------------------------------------------------------------


  energy-cutoff  :      520.00
  volume of cell :     9881.61
      direct lattice vectors                 reciprocal lattice vectors
    21.138852197  0.000000000  0.000000000     0.047306258  0.000000000  0.000000000
     0.000000000 21.138852197  0.000000000     0.000000000  0.047306258  0.000000000
     0.000000000  0.000000000 22.113885220     0.000000000  0.000000000  0.045220457

  length of vectors
    21.138852197 21.138852197 22.113885220     0.047306258  0.047306258  0.045220457



 k-points in units of 2pi/SCALE and weight: KPOINTS created by Atomic Simulation Env
   0.00000000  0.00000000  0.00000000       1.000

 k-points in reciprocal lattice and weights: KPOINTS created by Atomic Simulation Env
   0.00000000  0.00000000  0.00000000       1.000

 position of ions in fractional coordinates (direct lattice) 
   0.48723388  0.41276612  0.63389023
   0.41276609  0.48723391  0.63389023

 position of ions in cartesian coordinates  (Angst):
  10.29956507  8.72540203 14.01777580
   8.72540140 10.29956571 14.01777580



--------------------------------------------------------------------------------------------------------


 k-point   1 :   0.0000 0.0000 0.0000  plane waves:  265979

 maximum and minimum number of plane-waves per node :     66495    66494

 maximum number of plane-waves:    265979
 maximum index in each direction: 
   IXMAX=   39   IYMAX=   39   IZMAX=   41
   IXMIN=  -39   IYMIN=  -39   IZMIN=  -41


 real space projection operators:
  total allocation   :       1802.25 KBytes
  max/ min on nodes  :        457.31        443.81


 parallel 3D FFT for wavefunctions:
    minimum data exchange during FFTs selected (reduces bandwidth)
 parallel 3D FFT for charge:
    minimum data exchange during FFTs selected (reduces bandwidth)


 FFT grid for exact exchange (Hartree Fock) 
  NGX =120; NGY =120; NGZ =126


 Radii for the augmentation spheres in the non-local exchange
 for species   1 augmentation radius   1.179 (default was   0.943)
       energy cutoff for augmentation   2080.0

 real space projection operators:
  total allocation   :        491.02 KBytes
  max/ min on nodes  :        125.78        119.92

 Maximum index for augmentation-charges in exchange          307
  SETUP_FOCK is finished

 total amount of memory used by VASP MPI-rank0   144345. kBytes
=======================================================================

   base      :      30000. kBytes
   nonlr-proj:        977. kBytes
   fftplans  :      61791. kBytes
   grid      :      48291. kBytes
   one-center:         15. kBytes
   HF        :         64. kBytes
   wavefun   :       3207. kBytes

     INWAV:  cpu time      0.0001: real time      0.0002
 Broyden mixing: mesh for mixing (old mesh)
   NGX = 79   NGY = 79   NGZ = 83
  (NGX  =320   NGY  =320   NGZ  =336)
  gives a total of 518003 points

 initial charge density was supplied:
 charge density of overlapping atoms calculated
 number of electron      22.0000000 magnetization 
 keeping initial charge density in first step


--------------------------------------------------------------------------------------------------------


 Maximum index for non-local projection operator         1626
 Maximum index for augmentation-charges            0 (set IRDMAX)


--------------------------------------------------------------------------------------------------------


    FEWALD:  cpu time      0.0022: real time      0.0022


--------------------------------------- Iteration      1(   1)  ---------------------------------------


    POTLOK:  cpu time      0.1832: real time      0.1841
    SETDIJ:  cpu time      0.1179: real time      0.1180
    TRIAL :  cpu time      2.7838: real time      2.7844
    CORREC:  cpu time      0.0008: real time      0.0008
    --------------------------------------------
      LOOP:  cpu time      3.0873: real time      3.0891

 eigenvalue-minimisations  :   512
 total energy-change (2. order) :-0.5969400E+03  (-0.5712274E+03)
 number of electron      22.0000000 magnetization 
 augmentation part       22.0000000 magnetization 

 DIPCOR: dipole corrections for dipol
 direction  3 min pos     1,
 dipolmoment           0.000000      0.000000     -0.000046 electrons x Angstroem
 Tr[quadrupol]     -4008.098173

 energy correction for charged system         0.000000 eV
 dipol+quadrupol energy correction           -0.000000 eV
 added-field ion interaction          0.000059 eV  (added to PSCEN)


 Free energy of the ion-electron system (eV)
  ---------------------------------------------------
  alpha Z        PSCENC =         0.29609510
  Ewald energy   TEWEN  =       324.17739724
  -Hartree energ DENC   =     -2866.31557744
  -exchange      EXHF   =         0.00000000
  -V(xc)+E(xc)   XCENC  =        88.15741784
  PAW double counting   =      2456.41331976    -3314.26661633
  entropy T*S    EENTRO =        -0.00000000
  eigenvalues    EBANDS =       -63.11597915
  atomic energy  EATOM  =      2777.71391631
  ---------------------------------------------------
  free energy    TOTEN  =      -596.94002668 eV

  energy without entropy =     -596.94002668  energy(sigma->0) =     -596.94002668
  exchange ACFDT corr.  =         0.00000000  see jH, gK, PRB 81, 115126


--------------------------------------------------------------------------------------------------------




--------------------------------------- Iteration      1(   2)  ---------------------------------------


    TRIAL :  cpu time      3.0048: real time      3.0050
    CORREC:  cpu time      0.0004: real time      0.0004
    --------------------------------------------
      LOOP:  cpu time      3.0130: real time      3.0256

 eigenvalue-minimisations  :   512
 total energy-change (2. order) :-0.1168348E+03  (-0.1168348E+03)
 number of electron      22.0000000 magnetization 
 augmentation part       22.0000000 magnetization 

 DIPCOR: dipole corrections for dipol
 direction  3 min pos     1,
 dipolmoment           0.000000      0.000000     -0.000046 electrons x Angstroem
 Tr[quadrupol]     -4008.098173

 energy correction for charged system         0.000000 eV
 dipol+quadrupol energy correction           -0.000000 eV
 added-field ion interaction          0.000059 eV  (added to PSCEN)


 Free energy of the ion-electron system (eV)
  ---------------------------------------------------
  alpha Z        PSCENC =         0.29609510
  Ewald energy   TEWEN  =       324.17739724
  -Hartree energ DENC   =     -2866.31557744
  -exchange      EXHF   =         0.00000000
  -V(xc)+E(xc)   XCENC  =        88.15741784
  PAW double counting   =      2456.41331976    -3314.26661633
  entropy T*S    EENTRO =        -0.00000000
  eigenvalues    EBANDS =      -179.95080027
  atomic energy  EATOM  =      2777.71391631
  ---------------------------------------------------
  free energy    TOTEN  =      -713.77484780 eV

  energy without entropy =     -713.77484780  energy(sigma->0) =     -713.77484780
  exchange ACFDT corr.  =         0.00000000  see jH, gK, PRB 81, 115126


--------------------------------------------------------------------------------------------------------




--------------------------------------- Iteration      1(   3)  ---------------------------------------


    TRIAL :  cpu time      2.9586: real time      2.9588
    CORREC:  cpu time      0.0003: real time      0.0003
    --------------------------------------------
      LOOP:  cpu time      2.9646: real time      2.9767

 eigenvalue-minimisations  :   512
 total energy-change (2. order) :-0.1711942E+01  (-0.1711942E+01)
 number of electron      22.0000000 magnetization 
 augmentation part       22.0000000 magnetization 

 DIPCOR: dipole corrections for dipol
 direction  3 min pos     1,
 dipolmoment           0.000000      0.000000     -0.000046 electrons x Angstroem
 Tr[quadrupol]     -4008.098173

 energy correction for charged system         0.000000 eV
 dipol+quadrupol energy correction           -0.000000 eV
 added-field ion interaction          0.000059 eV  (added to PSCEN)


 Free energy of the ion-electron system (eV)
  ---------------------------------------------------
  alpha Z        PSCENC =         0.29609510
  Ewald energy   TEWEN  =       324.17739724
  -Hartree energ DENC   =     -2866.31557744
  -exchange      EXHF   =         0.00000000
  -V(xc)+E(xc)   XCENC  =        88.15741784
  PAW double counting   =      2456.41331976    -3314.26661633
  entropy T*S    EENTRO =        -0.00000000
  eigenvalues    EBANDS =      -181.66274239
  atomic energy  EATOM  =      2777.71391631
  ---------------------------------------------------
  free energy    TOTEN  =      -715.48678992 eV

  energy without entropy =     -715.48678992  energy(sigma->0) =     -715.48678992
  exchange ACFDT corr.  =         0.00000000  see jH, gK, PRB 81, 115126


--------------------------------------------------------------------------------------------------------




--------------------------------------- Iteration      1(   4)  ---------------------------------------


    TRIAL :  cpu time      2.9466: real time      2.9469
    CORREC:  cpu time      0.0004: real time      0.0004
    --------------------------------------------
      LOOP:  cpu time      2.9663: real time      2.9672

 eigenvalue-minimisations  :   512
 total energy-change (2. order) :-0.5655998E-02  (-0.5656008E-02)
 number of electron      22.0000000 magnetization 
 augmentation part       22.0000000 magnetization 

 DIPCOR: dipole corrections for dipol
 direction  3 min pos     1,
 dipolmoment           0.000000      0.000000     -0.000046 electrons x Angstroem
 Tr[quadrupol]     -4008.098173

 energy correction for charged system         0.000000 eV
 dipol+quadrupol energy correction           -0.000000 eV
 added-field ion interaction          0.000059 eV  (added to PSCEN)


 Free energy of the ion-electron system (eV)
  ---------------------------------------------------
  alpha Z        PSCENC =         0.29609510
  Ewald energy   TEWEN  =       324.17739724
  -Hartree energ DENC   =     -2866.31557744
  -exchange      EXHF   =         0.00000000
  -V(xc)+E(xc)   XCENC  =        88.15741784
  PAW double counting   =      2456.41331976    -3314.26661633
  entropy T*S    EENTRO =        -0.00000000
  eigenvalues    EBANDS =      -181.66839839
  atomic energy  EATOM  =      2777.71391631
  ---------------------------------------------------
  free energy    TOTEN  =      -715.49244592 eV

  energy without entropy =     -715.49244592  energy(sigma->0) =     -715.49244592
  exchange ACFDT corr.  =         0.00000000  see jH, gK, PRB 81, 115126


--------------------------------------------------------------------------------------------------------




--------------------------------------- Iteration      1(   5)  ---------------------------------------


    POTLOK:  cpu time      0.1643: real time      0.1643
    SETDIJ:  cpu time      0.3582: real time      0.3582
    TRIAL :  cpu time     34.1189: real time     34.1338
    CORREC:  cpu time      0.0004: real time      0.0004
    CHARGE:  cpu time      0.5855: real time      0.5859
    --------------------------------------------
      LOOP:  cpu time     35.2331: real time     35.2612

 eigenvalue-minimisations  :   512
 total energy-change (2. order) : 0.7120333E+03  (-0.1102436E+01)
 number of electron      22.0000063 magnetization 
 augmentation part       14.5253977 magnetization 

 DIPCOR: dipole corrections for dipol
 direction  3 min pos     1,
 dipolmoment           0.000000      0.000000     -0.000046 electrons x Angstroem
 Tr[quadrupol]     -4008.098173

 energy correction for charged system         0.000000 eV
 dipol+quadrupol energy correction           -0.000000 eV
 added-field ion interaction          0.000059 eV  (added to PSCEN)


 Free energy of the ion-electron system (eV)
  ---------------------------------------------------
  alpha Z        PSCENC =         0.29609510
  Ewald energy   TEWEN  =       324.17739724
  -Hartree energ DENC   =     -2866.31557744
  -exchange      EXHF   =        56.43197892
  -V(xc)+E(xc)   XCENC  =        69.82824227
  PAW double counting   =      2474.49836831    -2673.40526462
  entropy T*S    EENTRO =        -0.00000000
  eigenvalues    EBANDS =      -166.68433099
  atomic energy  EATOM  =      2777.71391631
  ---------------------------------------------------
  free energy    TOTEN  =        -3.45917491 eV

  energy without entropy =       -3.45917491  energy(sigma->0) =       -3.45917491
  exchange ACFDT corr.  =        -0.00000000  see jH, gK, PRB 81, 115126


--------------------------------------------------------------------------------------------------------




--------------------------------------- Iteration      1(   6)  ---------------------------------------


    POTLOK:  cpu time      0.1539: real time      0.1540
    SETDIJ:  cpu time      0.3683: real time      0.3683
    TRIAL :  cpu time     56.9164: real time     57.0412
    CORREC:  cpu time     31.7432: real time     31.7596
    CHARGE:  cpu time      0.5777: real time      0.5781
    --------------------------------------------
      LOOP:  cpu time     89.7777: real time     89.9196

 eigenvalue-minimisations  :     0
 total energy-change (2. order) : 0.1147528E+01  (-0.4019499E+00)
 number of electron      22.0000062 magnetization 
 augmentation part       14.3008586 magnetization 

 DIPCOR: dipole corrections for dipol
 direction  3 min pos     1,
 dipolmoment           0.000000      0.000000     -0.003721 electrons x Angstroem
 Tr[quadrupol]     -4008.024086

 energy correction for charged system         0.000000 eV
 dipol+quadrupol energy correction           -0.000000 eV
 added-field ion interaction          0.004796 eV  (added to PSCEN)


 Free energy of the ion-electron system (eV)
  ---------------------------------------------------
  alpha Z        PSCENC =         0.29602568
  Ewald energy   TEWEN  =       324.17739724
  -Hartree energ DENC   =     -2932.43733036
  -exchange      EXHF   =        54.54415233
  -V(xc)+E(xc)   XCENC  =        71.13972382
  PAW double counting   =      2668.91879330    -2877.14324241
  entropy T*S    EENTRO =        -0.00000000
  eigenvalues    EBANDS =       -89.52108319
  atomic energy  EATOM  =      2777.71391631
  ---------------------------------------------------
  free energy    TOTEN  =        -2.31164728 eV

  energy without entropy =       -2.31164728  energy(sigma->0) =       -2.31164728
  exchange ACFDT corr.  =        -0.00000000  see jH, gK, PRB 81, 115126


--------------------------------------------------------------------------------------------------------




--------------------------------------- Iteration      1(   7)  ---------------------------------------


    POTLOK:  cpu time      0.1798: real time      0.1798
    SETDIJ:  cpu time      0.3434: real time      0.3434
    TRIAL :  cpu time     30.9349: real time     30.9508
    CORREC:  cpu time     31.5020: real time     31.5183
    CHARGE:  cpu time      0.5726: real time      0.5729
    --------------------------------------------
      LOOP:  cpu time     63.5395: real time     63.5859

 eigenvalue-minimisations  :     0
 total energy-change (2. order) :-0.4132410E+00  (-0.2734662E+00)
 number of electron      22.0000062 magnetization 
 augmentation part       14.3507643 magnetization 

 DIPCOR: dipole corrections for dipol
 direction  3 min pos     1,
 dipolmoment           0.000000      0.000000     -0.001997 electrons x Angstroem
 Tr[quadrupol]     -4008.229667

 energy correction for charged system         0.000000 eV
 dipol+quadrupol energy correction           -0.000000 eV
 added-field ion interaction          0.002575 eV  (added to PSCEN)


 Free energy of the ion-electron system (eV)
  ---------------------------------------------------
  alpha Z        PSCENC =         0.29664504
  Ewald energy   TEWEN  =       324.17739724
  -Hartree energ DENC   =     -2897.77977267
  -exchange      EXHF   =        53.90587447
  -V(xc)+E(xc)   XCENC  =        70.05407920
  PAW double counting   =      2644.59149840    -2843.88918359
  entropy T*S    EENTRO =        -0.00000000
  eigenvalues    EBANDS =      -131.79534265
  atomic energy  EATOM  =      2777.71391631
  ---------------------------------------------------
  free energy    TOTEN  =        -2.72488825 eV

  energy without entropy =       -2.72488825  energy(sigma->0) =       -2.72488825
  exchange ACFDT corr.  =        -0.00000000  see jH, gK, PRB 81, 115126


--------------------------------------------------------------------------------------------------------




--------------------------------------- Iteration      1(   8)  ---------------------------------------


    POTLOK:  cpu time      0.1714: real time      0.1714
    SETDIJ:  cpu time      0.3499: real time      0.3500
    TRIAL :  cpu time     30.6439: real time     30.6605
    CORREC:  cpu time     31.7238: real time     31.7388
    CHARGE:  cpu time      0.5742: real time      0.5746
    --------------------------------------------
      LOOP:  cpu time     63.4801: real time     63.5128

 eigenvalue-minimisations  :     0
 total energy-change (2. order) :-0.2740677E+00  (-0.6682489E-01)
 number of electron      22.0000062 magnetization 
 augmentation part       14.3925502 magnetization 

 DIPCOR: dipole corrections for dipol
 direction  3 min pos     1,
 dipolmoment           0.000000      0.000000     -0.001393 electrons x Angstroem
 Tr[quadrupol]     -4008.230002

 energy correction for charged system         0.000000 eV
 dipol+quadrupol energy correction           -0.000000 eV
 added-field ion interaction          0.001796 eV  (added to PSCEN)


 Free energy of the ion-electron system (eV)
  ---------------------------------------------------
  alpha Z        PSCENC =         0.29900940
  Ewald energy   TEWEN  =       324.17739724
  -Hartree energ DENC   =     -2888.18510719
  -exchange      EXHF   =        53.81841161
  -V(xc)+E(xc)   XCENC  =        70.02098084
  PAW double counting   =      2623.38794321    -2824.33983869
  entropy T*S    EENTRO =        -0.00000000
  eigenvalues    EBANDS =      -139.89166864
  atomic energy  EATOM  =      2777.71391631
  ---------------------------------------------------
  free energy    TOTEN  =        -2.99895591 eV

  energy without entropy =       -2.99895591  energy(sigma->0) =       -2.99895591
  exchange ACFDT corr.  =        -0.00000000  see jH, gK, PRB 81, 115126


--------------------------------------------------------------------------------------------------------




--------------------------------------- Iteration      1(   9)  ---------------------------------------


    POTLOK:  cpu time      0.1700: real time      0.1701
    SETDIJ:  cpu time      0.3592: real time      0.3592
    TRIAL :  cpu time     30.7468: real time     30.7623
    CORREC:  cpu time     31.2565: real time     31.2730
    CHARGE:  cpu time      0.5737: real time      0.5741
    --------------------------------------------
      LOOP:  cpu time     63.1118: real time     63.1573

 eigenvalue-minimisations  :     0
 total energy-change (2. order) :-0.6729019E-01  (-0.2424322E-01)
 number of electron      22.0000062 magnetization 
 augmentation part       14.3415651 magnetization 

 DIPCOR: dipole corrections for dipol
 direction  3 min pos     1,
 dipolmoment           0.000000      0.000000     -0.000253 electrons x Angstroem
 Tr[quadrupol]     -4008.188014

 energy correction for charged system         0.000000 eV
 dipol+quadrupol energy correction           -0.000000 eV
 added-field ion interaction          0.000326 eV  (added to PSCEN)


 Free energy of the ion-electron system (eV)
  ---------------------------------------------------
  alpha Z        PSCENC =         0.29751459
  Ewald energy   TEWEN  =       324.17739724
  -Hartree energ DENC   =     -2891.35284091
  -exchange      EXHF   =        53.89265409
  -V(xc)+E(xc)   XCENC  =        70.17560903
  PAW double counting   =      2623.96129975    -2826.66777431
  entropy T*S    EENTRO =        -0.00000000
  eigenvalues    EBANDS =      -135.26402189
  atomic energy  EATOM  =      2777.71391631
  ---------------------------------------------------
  free energy    TOTEN  =        -3.06624611 eV

  energy without entropy =       -3.06624611  energy(sigma->0) =       -3.06624611
  exchange ACFDT corr.  =        -0.00000000  see jH, gK, PRB 81, 115126


--------------------------------------------------------------------------------------------------------




--------------------------------------- Iteration      1(  10)  ---------------------------------------


    POTLOK:  cpu time      0.1787: real time      0.1787
    SETDIJ:  cpu time      0.3552: real time      0.3552
    TRIAL :  cpu time     30.6632: real time     30.6794
    CORREC:  cpu time     31.4736: real time     31.4890
    CHARGE:  cpu time      0.5741: real time      0.5745
    --------------------------------------------
      LOOP:  cpu time     63.2632: real time     63.2959

 eigenvalue-minimisations  :     0
 total energy-change (2. order) :-0.2421676E-01  (-0.2983666E-01)
 number of electron      22.0000062 magnetization 
 augmentation part       14.3512366 magnetization 

 DIPCOR: dipole corrections for dipol
 direction  3 min pos     1,
 dipolmoment           0.000000      0.000000     -0.000031 electrons x Angstroem
 Tr[quadrupol]     -4008.202371

 energy correction for charged system         0.000000 eV
 dipol+quadrupol energy correction           -0.000000 eV
 added-field ion interaction          0.000039 eV  (added to PSCEN)


 Free energy of the ion-electron system (eV)
  ---------------------------------------------------
  alpha Z        PSCENC =         0.29676894
  Ewald energy   TEWEN  =       324.17739724
  -Hartree energ DENC   =     -2884.04298771
  -exchange      EXHF   =        53.75435796
  -V(xc)+E(xc)   XCENC  =        69.94227670
  PAW double counting   =      2619.52156836    -2820.29637735
  entropy T*S    EENTRO =        -0.00000000
  eigenvalues    EBANDS =      -144.15738331
  atomic energy  EATOM  =      2777.71391631
  ---------------------------------------------------
  free energy    TOTEN  =        -3.09046287 eV

  energy without entropy =       -3.09046287  energy(sigma->0) =       -3.09046287
  exchange ACFDT corr.  =        -0.00000000  see jH, gK, PRB 81, 115126


--------------------------------------------------------------------------------------------------------




--------------------------------------- Iteration      1(  11)  ---------------------------------------


    POTLOK:  cpu time      0.1760: real time      0.1760
    SETDIJ:  cpu time      0.3499: real time      0.3502
    TRIAL :  cpu time     30.7160: real time     30.7310
    CORREC:  cpu time     31.8633: real time     31.8796
    CHARGE:  cpu time      0.5735: real time      0.5739
    --------------------------------------------
      LOOP:  cpu time     63.6838: real time     63.7301

 eigenvalue-minimisations  :     0
 total energy-change (2. order) :-0.2981264E-01  (-0.4749278E-02)
 number of electron      22.0000062 magnetization 
 augmentation part       14.3691685 magnetization 

 DIPCOR: dipole corrections for dipol
 direction  3 min pos     1,
 dipolmoment           0.000000      0.000000      0.000009 electrons x Angstroem
 Tr[quadrupol]     -4008.193858

 energy correction for charged system         0.000000 eV
 dipol+quadrupol energy correction           -0.000000 eV
 added-field ion interaction         -0.000011 eV  (added to PSCEN)


 Free energy of the ion-electron system (eV)
  ---------------------------------------------------
  alpha Z        PSCENC =         0.29603366
  Ewald energy   TEWEN  =       324.17739724
  -Hartree energ DENC   =     -2883.80216854
  -exchange      EXHF   =        53.76151354
  -V(xc)+E(xc)   XCENC  =        69.97039486
  PAW double counting   =      2617.97506837    -2819.02122604
  entropy T*S    EENTRO =        -0.00000000
  eigenvalues    EBANDS =      -144.19120492
  atomic energy  EATOM  =      2777.71391631
  ---------------------------------------------------
  free energy    TOTEN  =        -3.12027550 eV

  energy without entropy =       -3.12027550  energy(sigma->0) =       -3.12027550
  exchange ACFDT corr.  =        -0.00000000  see jH, gK, PRB 81, 115126


--------------------------------------------------------------------------------------------------------




--------------------------------------- Iteration      1(  12)  ---------------------------------------


    POTLOK:  cpu time      0.1840: real time      0.1840
    SETDIJ:  cpu time      0.3400: real time      0.3400
    TRIAL :  cpu time     30.6943: real time     30.7103
    CORREC:  cpu time     31.5025: real time     31.5185
    CHARGE:  cpu time      0.5740: real time      0.5744
    --------------------------------------------
      LOOP:  cpu time     63.3146: real time     63.3475

 eigenvalue-minimisations  :     0
 total energy-change (2. order) :-0.4752437E-02  (-0.2533019E-02)
 number of electron      22.0000062 magnetization 
 augmentation part       14.3565022 magnetization 

 DIPCOR: dipole corrections for dipol
 direction  3 min pos     1,
 dipolmoment           0.000000      0.000000      0.000009 electrons x Angstroem
 Tr[quadrupol]     -4008.167885

 energy correction for charged system         0.000000 eV
 dipol+quadrupol energy correction           -0.000000 eV
 added-field ion interaction         -0.000011 eV  (added to PSCEN)


 Free energy of the ion-electron system (eV)
  ---------------------------------------------------
  alpha Z        PSCENC =         0.29602589
  Ewald energy   TEWEN  =       324.17739724
  -Hartree energ DENC   =     -2885.34747784
  -exchange      EXHF   =        53.79502507
  -V(xc)+E(xc)   XCENC  =        70.03409536
  PAW double counting   =      2618.61308348    -2820.29357195
  entropy T*S    EENTRO =        -0.00000000
  eigenvalues    EBANDS =      -142.11352149
  atomic energy  EATOM  =      2777.71391631
  ---------------------------------------------------
  free energy    TOTEN  =        -3.12502794 eV

  energy without entropy =       -3.12502794  energy(sigma->0) =       -3.12502794
  exchange ACFDT corr.  =        -0.00000000  see jH, gK, PRB 81, 115126


--------------------------------------------------------------------------------------------------------




--------------------------------------- Iteration      1(  13)  ---------------------------------------


    POTLOK:  cpu time      0.1679: real time      0.1680
    SETDIJ:  cpu time      0.3578: real time      0.3579
    TRIAL :  cpu time     30.6931: real time     30.7087
    CORREC:  cpu time     31.2378: real time     31.2541
    CHARGE:  cpu time      0.5766: real time      0.5769
    --------------------------------------------
      LOOP:  cpu time     63.0388: real time     63.0825

 eigenvalue-minimisations  :     0
 total energy-change (2. order) :-0.2536575E-02  (-0.9138454E-03)
 number of electron      22.0000062 magnetization 
 augmentation part       14.3548576 magnetization 

 DIPCOR: dipole corrections for dipol
 direction  3 min pos     1,
 dipolmoment           0.000000      0.000000      0.000016 electrons x Angstroem
 Tr[quadrupol]     -4008.176303

 energy correction for charged system         0.000000 eV
 dipol+quadrupol energy correction           -0.000000 eV
 added-field ion interaction         -0.000020 eV  (added to PSCEN)


 Free energy of the ion-electron system (eV)
  ---------------------------------------------------
  alpha Z        PSCENC =         0.29602195
  Ewald energy   TEWEN  =       324.17739724
  -Hartree energ DENC   =     -2883.15592601
  -exchange      EXHF   =        53.75395070
  -V(xc)+E(xc)   XCENC  =        69.96650260
  PAW double counting   =      2617.25258570    -2818.41151767
  entropy T*S    EENTRO =        -0.00000000
  eigenvalues    EBANDS =      -144.72049533
  atomic energy  EATOM  =      2777.71391631
  ---------------------------------------------------
  free energy    TOTEN  =        -3.12756452 eV

  energy without entropy =       -3.12756452  energy(sigma->0) =       -3.12756452
  exchange ACFDT corr.  =        -0.00000000  see jH, gK, PRB 81, 115126


--------------------------------------------------------------------------------------------------------




--------------------------------------- Iteration      1(  14)  ---------------------------------------


    POTLOK:  cpu time      0.1702: real time      0.1703
    SETDIJ:  cpu time      0.3657: real time      0.3660
    TRIAL :  cpu time     31.0852: real time     31.1002
    CORREC:  cpu time     31.4152: real time     31.4315
    CHARGE:  cpu time      0.5736: real time      0.5741
    --------------------------------------------
      LOOP:  cpu time     63.6156: real time     63.6607

 eigenvalue-minimisations  :     0
 total energy-change (2. order) :-0.9154952E-03  (-0.1894226E-03)
 number of electron      22.0000062 magnetization 
 augmentation part       14.3593400 magnetization 

 DIPCOR: dipole corrections for dipol
 direction  3 min pos     1,
 dipolmoment           0.000000      0.000000      0.000016 electrons x Angstroem
 Tr[quadrupol]     -4008.178718

 energy correction for charged system         0.000000 eV
 dipol+quadrupol energy correction           -0.000000 eV
 added-field ion interaction         -0.000021 eV  (added to PSCEN)


 Free energy of the ion-electron system (eV)
  ---------------------------------------------------
  alpha Z        PSCENC =         0.29601470
  Ewald energy   TEWEN  =       324.17739724
  -Hartree energ DENC   =     -2882.68505995
  -exchange      EXHF   =        53.74466952
  -V(xc)+E(xc)   XCENC  =        69.95396244
  PAW double counting   =      2616.79394658    -2817.87989507
  entropy T*S    EENTRO =        -0.00000000
  eigenvalues    EBANDS =      -145.24343179
  atomic energy  EATOM  =      2777.71391631
  ---------------------------------------------------
  free energy    TOTEN  =        -3.12848001 eV

  energy without entropy =       -3.12848001  energy(sigma->0) =       -3.12848001
  exchange ACFDT corr.  =        -0.00000000  see jH, gK, PRB 81, 115126


--------------------------------------------------------------------------------------------------------




--------------------------------------- Iteration      1(  15)  ---------------------------------------


    POTLOK:  cpu time      0.1756: real time      0.1757
    SETDIJ:  cpu time      0.3536: real time      0.3536
    TRIAL :  cpu time     30.8770: real time     30.8937
    CORREC:  cpu time     31.6353: real time     31.6518
    CHARGE:  cpu time      0.5735: real time      0.5738
    --------------------------------------------
      LOOP:  cpu time     63.6215: real time     63.6679

 eigenvalue-minimisations  :     0
 total energy-change (2. order) :-0.1899774E-03  (-0.1590642E-03)
 number of electron      22.0000062 magnetization 
 augmentation part       14.3578023 magnetization 

 DIPCOR: dipole corrections for dipol
 direction  3 min pos     1,
 dipolmoment           0.000000      0.000000      0.000017 electrons x Angstroem
 Tr[quadrupol]     -4008.177824

 energy correction for charged system         0.000000 eV
 dipol+quadrupol energy correction           -0.000000 eV
 added-field ion interaction         -0.000021 eV  (added to PSCEN)


 Free energy of the ion-electron system (eV)
  ---------------------------------------------------
  alpha Z        PSCENC =         0.29601445
  Ewald energy   TEWEN  =       324.17739724
  -Hartree energ DENC   =     -2883.29599990
  -exchange      EXHF   =        53.75618733
  -V(xc)+E(xc)   XCENC  =        69.97424920
  PAW double counting   =      2617.18961610    -2818.45071324
  entropy T*S    EENTRO =        -0.00000000
  eigenvalues    EBANDS =      -144.48933747
  atomic energy  EATOM  =      2777.71391631
  ---------------------------------------------------
  free energy    TOTEN  =        -3.12866999 eV

  energy without entropy =       -3.12866999  energy(sigma->0) =       -3.12866999
  exchange ACFDT corr.  =        -0.00000000  see jH, gK, PRB 81, 115126


--------------------------------------------------------------------------------------------------------




--------------------------------------- Iteration      1(  16)  ---------------------------------------


    POTLOK:  cpu time      0.1792: real time      0.1793
    SETDIJ:  cpu time      0.3523: real time      0.3523
    TRIAL :  cpu time     30.8401: real time     30.8560
    CORREC:  cpu time     31.4258: real time     31.4415
    CHARGE:  cpu time      0.5736: real time      0.5742
    --------------------------------------------
      LOOP:  cpu time     63.3883: real time     63.4212

 eigenvalue-minimisations  :     0
 total energy-change (2. order) :-0.1592691E-03  (-0.4668555E-04)
 number of electron      22.0000062 magnetization 
 augmentation part       14.3559161 magnetization 

 DIPCOR: dipole corrections for dipol
 direction  3 min pos     1,
 dipolmoment           0.000000      0.000000      0.000017 electrons x Angstroem
 Tr[quadrupol]     -4008.177473

 energy correction for charged system         0.000000 eV
 dipol+quadrupol energy correction           -0.000000 eV
 added-field ion interaction         -0.000022 eV  (added to PSCEN)


 Free energy of the ion-electron system (eV)
  ---------------------------------------------------
  alpha Z        PSCENC =         0.29601456
  Ewald energy   TEWEN  =       324.17739724
  -Hartree energ DENC   =     -2883.23207847
  -exchange      EXHF   =        53.75405497
  -V(xc)+E(xc)   XCENC  =        69.96968269
  PAW double counting   =      2617.35226424    -2818.56432653
  entropy T*S    EENTRO =        -0.00000000
  eigenvalues    EBANDS =      -144.59575427
  atomic energy  EATOM  =      2777.71391631
  ---------------------------------------------------
  free energy    TOTEN  =        -3.12882926 eV

  energy without entropy =       -3.12882926  energy(sigma->0) =       -3.12882926
  exchange ACFDT corr.  =        -0.00000000  see jH, gK, PRB 81, 115126


--------------------------------------------------------------------------------------------------------




--------------------------------------- Iteration      1(  17)  ---------------------------------------


    POTLOK:  cpu time      0.1771: real time      0.1771
    SETDIJ:  cpu time      0.3531: real time      0.3531
    TRIAL :  cpu time     30.8417: real time     30.8574
    CORREC:  cpu time     31.5212: real time     31.5370
    CHARGE:  cpu time      0.5746: real time      0.5749
    --------------------------------------------
      LOOP:  cpu time     63.4729: real time     63.5177

 eigenvalue-minimisations  :     0
 total energy-change (2. order) :-0.4687043E-04  (-0.3465241E-04)
 number of electron      22.0000062 magnetization 
 augmentation part       14.3572861 magnetization 

 DIPCOR: dipole corrections for dipol
 direction  3 min pos     1,
 dipolmoment           0.000000      0.000000      0.000017 electrons x Angstroem
 Tr[quadrupol]     -4008.179104

 energy correction for charged system         0.000000 eV
 dipol+quadrupol energy correction           -0.000000 eV
 added-field ion interaction         -0.000022 eV  (added to PSCEN)


 Free energy of the ion-electron system (eV)
  ---------------------------------------------------
  alpha Z        PSCENC =         0.29601404
  Ewald energy   TEWEN  =       324.17739724
  -Hartree energ DENC   =     -2883.00817934
  -exchange      EXHF   =        53.74964748
  -V(xc)+E(xc)   XCENC  =        69.96202200
  PAW double counting   =      2617.27137631    -2818.41496343
  entropy T*S    EENTRO =        -0.00000000
  eigenvalues    EBANDS =      -144.87610673
  atomic energy  EATOM  =      2777.71391631
  ---------------------------------------------------
  free energy    TOTEN  =        -3.12887613 eV

  energy without entropy =       -3.12887613  energy(sigma->0) =       -3.12887613
  exchange ACFDT corr.  =        -0.00000000  see jH, gK, PRB 81, 115126


--------------------------------------------------------------------------------------------------------




--------------------------------------- Iteration      1(  18)  ---------------------------------------


    POTLOK:  cpu time      0.1663: real time      0.1664
    SETDIJ:  cpu time      0.3622: real time      0.3622
    TRIAL :  cpu time     30.9561: real time     30.9725
    CORREC:  cpu time     31.4736: real time     31.4886
    CHARGE:  cpu time      0.5736: real time      0.5739
    --------------------------------------------
      LOOP:  cpu time     63.5364: real time     63.5816

 eigenvalue-minimisations  :     0
 total energy-change (2. order) :-0.3706160E-04  (-0.1451175E-04)
 number of electron      22.0000062 magnetization 
 augmentation part       14.3573156 magnetization 

 DIPCOR: dipole corrections for dipol
 direction  3 min pos     1,
 dipolmoment           0.000000      0.000000      0.000017 electrons x Angstroem
 Tr[quadrupol]     -4008.178853

 energy correction for charged system         0.000000 eV
 dipol+quadrupol energy correction           -0.000000 eV
 added-field ion interaction         -0.000023 eV  (added to PSCEN)


 Free energy of the ion-electron system (eV)
  ---------------------------------------------------
  alpha Z        PSCENC =         0.29601371
  Ewald energy   TEWEN  =       324.17739724
  -Hartree energ DENC   =     -2883.20249304
  -exchange      EXHF   =        53.75343841
  -V(xc)+E(xc)   XCENC  =        69.96858179
  PAW double counting   =      2617.42304945    -2818.62368672
  entropy T*S    EENTRO =        -0.00000000
  eigenvalues    EBANDS =      -144.63513032
  atomic energy  EATOM  =      2777.71391631
  ---------------------------------------------------
  free energy    TOTEN  =        -3.12891319 eV

  energy without entropy =       -3.12891319  energy(sigma->0) =       -3.12891319
  exchange ACFDT corr.  =        -0.00000000  see jH, gK, PRB 81, 115126


--------------------------------------------------------------------------------------------------------




--------------------------------------- Iteration      1(  19)  ---------------------------------------


    POTLOK:  cpu time      0.1713: real time      0.1713
    SETDIJ:  cpu time      0.3602: real time      0.3602
    TRIAL :  cpu time     30.6285: real time     30.6453
    CORREC:  cpu time     31.8151: real time     31.8330
    CHARGE:  cpu time      0.5732: real time      0.5735
    --------------------------------------------
      LOOP:  cpu time     63.5542: real time     63.6029

 eigenvalue-minimisations  :     0
 total energy-change (2. order) :-0.1564999E-04  (-0.7018060E-05)
 number of electron      22.0000062 magnetization 
 augmentation part       14.3567320 magnetization 

 DIPCOR: dipole corrections for dipol
 direction  3 min pos     1,
 dipolmoment           0.000000      0.000000      0.000018 electrons x Angstroem
 Tr[quadrupol]     -4008.178847

 energy correction for charged system         0.000000 eV
 dipol+quadrupol energy correction           -0.000000 eV
 added-field ion interaction         -0.000023 eV  (added to PSCEN)


 Free energy of the ion-electron system (eV)
  ---------------------------------------------------
  alpha Z        PSCENC =         0.29601331
  Ewald energy   TEWEN  =       324.17739724
  -Hartree energ DENC   =     -2883.22882194
  -exchange      EXHF   =        53.75377354
  -V(xc)+E(xc)   XCENC  =        69.96901361
  PAW double counting   =      2617.50376648    -2818.71064525
  entropy T*S    EENTRO =        -0.00000000
  eigenvalues    EBANDS =      -144.60334215
  atomic energy  EATOM  =      2777.71391631
  ---------------------------------------------------
  free energy    TOTEN  =        -3.12892884 eV

  energy without entropy =       -3.12892884  energy(sigma->0) =       -3.12892884
  exchange ACFDT corr.  =        -0.00000000  see jH, gK, PRB 81, 115126


--------------------------------------------------------------------------------------------------------




--------------------------------------- Iteration      1(  20)  ---------------------------------------


    POTLOK:  cpu time      0.1690: real time      0.1691
    SETDIJ:  cpu time      0.3648: real time      0.3648
    TRIAL :  cpu time     30.6537: real time     30.6701
    CORREC:  cpu time     31.3991: real time     31.4138
    CHARGE:  cpu time      0.5738: real time      0.5742
    --------------------------------------------
      LOOP:  cpu time     63.1669: real time     63.2131

 eigenvalue-minimisations  :     0
 total energy-change (2. order) :-0.6498307E-05  (-0.5261709E-05)
 number of electron      22.0000062 magnetization 
 augmentation part       14.3571463 magnetization 

 DIPCOR: dipole corrections for dipol
 direction  3 min pos     1,
 dipolmoment           0.000000      0.000000      0.000018 electrons x Angstroem
 Tr[quadrupol]     -4008.179349

 energy correction for charged system         0.000000 eV
 dipol+quadrupol energy correction           -0.000000 eV
 added-field ion interaction         -0.000023 eV  (added to PSCEN)


 Free energy of the ion-electron system (eV)
  ---------------------------------------------------
  alpha Z        PSCENC =         0.29601322
  Ewald energy   TEWEN  =       324.17739724
  -Hartree energ DENC   =     -2883.16370813
  -exchange      EXHF   =        53.75239579
  -V(xc)+E(xc)   XCENC  =        69.96661749
  PAW double counting   =      2617.50576886    -2818.69314433
  entropy T*S    EENTRO =        -0.00000000
  eigenvalues    EBANDS =      -144.68419178
  atomic energy  EATOM  =      2777.71391631
  ---------------------------------------------------
  free energy    TOTEN  =        -3.12893534 eV

  energy without entropy =       -3.12893534  energy(sigma->0) =       -3.12893534
  exchange ACFDT corr.  =        -0.00000000  see jH, gK, PRB 81, 115126


--------------------------------------------------------------------------------------------------------




--------------------------------------- Iteration      1(  21)  ---------------------------------------


    POTLOK:  cpu time      0.1663: real time      0.1663
    SETDIJ:  cpu time      0.3627: real time      0.3627
    TRIAL :  cpu time     30.6237: real time     30.6405
    CORREC:  cpu time     31.5072: real time     31.5237
    CHARGE:  cpu time      0.5732: real time      0.5736
    --------------------------------------------
      LOOP:  cpu time     63.2384: real time     63.2889

 eigenvalue-minimisations  :     0
 total energy-change (2. order) :-0.5276473E-05  (-0.2491445E-05)
 number of electron      22.0000062 magnetization 
 augmentation part       14.3571290 magnetization 

 DIPCOR: dipole corrections for dipol
 direction  3 min pos     1,
 dipolmoment           0.000000      0.000000      0.000018 electrons x Angstroem
 Tr[quadrupol]     -4008.179370

 energy correction for charged system         0.000000 eV
 dipol+quadrupol energy correction           -0.000000 eV
 added-field ion interaction         -0.000023 eV  (added to PSCEN)


 Free energy of the ion-electron system (eV)
  ---------------------------------------------------
  alpha Z        PSCENC =         0.29601320
  Ewald energy   TEWEN  =       324.17739724
  -Hartree energ DENC   =     -2883.22873465
  -exchange      EXHF   =        53.75358552
  -V(xc)+E(xc)   XCENC  =        69.96858456
  PAW double counting   =      2617.58138787    -2818.78811203
  entropy T*S    EENTRO =        -0.00000000
  eigenvalues    EBANDS =      -144.60297864
  atomic energy  EATOM  =      2777.71391631
  ---------------------------------------------------
  free energy    TOTEN  =        -3.12894061 eV

  energy without entropy =       -3.12894061  energy(sigma->0) =       -3.12894061
  exchange ACFDT corr.  =        -0.00000000  see jH, gK, PRB 81, 115126


--------------------------------------------------------------------------------------------------------




--------------------------------------- Iteration      1(  22)  ---------------------------------------


    POTLOK:  cpu time      0.1703: real time      0.1703
    SETDIJ:  cpu time      0.3604: real time      0.3604
    TRIAL :  cpu time     30.7969: real time     30.8115
    CORREC:  cpu time     31.6654: real time     31.6816
    CHARGE:  cpu time      0.5745: real time      0.5748
    --------------------------------------------
      LOOP:  cpu time     63.5744: real time     63.6154

 eigenvalue-minimisations  :     0
 total energy-change (2. order) :-0.2828433E-05  (-0.1442157E-05)
 number of electron      22.0000062 magnetization 
 augmentation part       14.3568516 magnetization 

 DIPCOR: dipole corrections for dipol
 direction  3 min pos     1,
 dipolmoment           0.000000      0.000000      0.000018 electrons x Angstroem
 Tr[quadrupol]     -4008.179255

 energy correction for charged system         0.000000 eV
 dipol+quadrupol energy correction           -0.000000 eV
 added-field ion interaction         -0.000023 eV  (added to PSCEN)


 Free energy of the ion-electron system (eV)
  ---------------------------------------------------
  alpha Z        PSCENC =         0.29601319
  Ewald energy   TEWEN  =       324.17739724
  -Hartree energ DENC   =     -2883.23292034
  -exchange      EXHF   =        53.75364389
  -V(xc)+E(xc)   XCENC  =        69.96877833
  PAW double counting   =      2617.60282723    -2818.81136767
  entropy T*S    EENTRO =        -0.00000000
  eigenvalues    EBANDS =      -144.59723163
  atomic energy  EATOM  =      2777.71391631
  ---------------------------------------------------
  free energy    TOTEN  =        -3.12894344 eV

  energy without entropy =       -3.12894344  energy(sigma->0) =       -3.12894344
  exchange ACFDT corr.  =        -0.00000000  see jH, gK, PRB 81, 115126


--------------------------------------------------------------------------------------------------------




--------------------------------------- Iteration      1(  23)  ---------------------------------------


    POTLOK:  cpu time      0.1796: real time      0.1797
    SETDIJ:  cpu time      0.3470: real time      0.3470
    TRIAL :  cpu time     30.5480: real time     30.5628
    CORREC:  cpu time     31.4064: real time     31.4219
    CHARGE:  cpu time      0.5746: real time      0.5750
    --------------------------------------------
      LOOP:  cpu time     63.0738: real time     63.1049

 eigenvalue-minimisations  :     0
 total energy-change (2. order) :-0.1192280E-05  (-0.1848941E-05)
 number of electron      22.0000062 magnetization 
 augmentation part       14.3569688 magnetization 

 DIPCOR: dipole corrections for dipol
 direction  3 min pos     1,
 dipolmoment           0.000000      0.000000      0.000018 electrons x Angstroem
 Tr[quadrupol]     -4008.179398

 energy correction for charged system         0.000000 eV
 dipol+quadrupol energy correction           -0.000000 eV
 added-field ion interaction         -0.000023 eV  (added to PSCEN)


 Free energy of the ion-electron system (eV)
  ---------------------------------------------------
  alpha Z        PSCENC =         0.29601317
  Ewald energy   TEWEN  =       324.17739724
  -Hartree energ DENC   =     -2883.20089196
  -exchange      EXHF   =        53.75301745
  -V(xc)+E(xc)   XCENC  =        69.96761262
  PAW double counting   =      2617.59118923    -2818.79060131
  entropy T*S    EENTRO =        -0.00000000
  eigenvalues    EBANDS =      -144.63659738
  atomic energy  EATOM  =      2777.71391631
  ---------------------------------------------------
  free energy    TOTEN  =        -3.12894463 eV

  energy without entropy =       -3.12894463  energy(sigma->0) =       -3.12894463
  exchange ACFDT corr.  =        -0.00000000  see jH, gK, PRB 81, 115126


--------------------------------------------------------------------------------------------------------




--------------------------------------- Iteration      1(  24)  ---------------------------------------


    POTLOK:  cpu time      0.1691: real time      0.1691
    SETDIJ:  cpu time      0.3562: real time      0.3562
    TRIAL :  cpu time     30.7095: real time     30.7261
    CORREC:  cpu time     31.6774: real time     31.6941
    CHARGE:  cpu time      0.5736: real time      0.5739
    --------------------------------------------
      LOOP:  cpu time     63.4926: real time     63.5385

 eigenvalue-minimisations  :     0
 total energy-change (2. order) :-0.1819053E-05  (-0.2937689E-06)
 number of electron      22.0000062 magnetization 
 augmentation part       14.3568847 magnetization 

 DIPCOR: dipole corrections for dipol
 direction  3 min pos     1,
 dipolmoment           0.000000      0.000000      0.000018 electrons x Angstroem
 Tr[quadrupol]     -4008.179423

 energy correction for charged system         0.000000 eV
 dipol+quadrupol energy correction           -0.000000 eV
 added-field ion interaction         -0.000023 eV  (added to PSCEN)


 Free energy of the ion-electron system (eV)
  ---------------------------------------------------
  alpha Z        PSCENC =         0.29601316
  Ewald energy   TEWEN  =       324.17739724
  -Hartree energ DENC   =     -2883.22296632
  -exchange      EXHF   =        53.75346479
  -V(xc)+E(xc)   XCENC  =        69.96825167
  PAW double counting   =      2617.61046285    -2818.81677714
  entropy T*S    EENTRO =        -0.00000000
  eigenvalues    EBANDS =      -144.60870902
  atomic energy  EATOM  =      2777.71391631
  ---------------------------------------------------
  free energy    TOTEN  =        -3.12894645 eV

  energy without entropy =       -3.12894645  energy(sigma->0) =       -3.12894645
  exchange ACFDT corr.  =        -0.00000000  see jH, gK, PRB 81, 115126


--------------------------------------------------------------------------------------------------------




--------------------------------------- Iteration      1(  25)  ---------------------------------------


    POTLOK:  cpu time      0.1726: real time      0.1726
    SETDIJ:  cpu time      0.3536: real time      0.3537
    TRIAL :  cpu time     30.5675: real time     30.5832
    CORREC:  cpu time     31.8874: real time     31.9035
    EDDIAG:  cpu time     30.7205: real time     30.7356
    CHARGE:  cpu time      0.5731: real time      0.5735
    --------------------------------------------
      LOOP:  cpu time     94.2939: real time     94.3416

 eigenvalue-minimisations  :     0
 total energy-change (2. order) : 0.1634771E-06  (-0.9424659E-06)
 number of electron      22.0000062 magnetization 
 augmentation part       14.3566563 magnetization 

 DIPCOR: dipole corrections for dipol
 direction  3 min pos     1,
 dipolmoment           0.000000      0.000000      0.000018 electrons x Angstroem
 Tr[quadrupol]     -4008.179368

 energy correction for charged system         0.000000 eV
 dipol+quadrupol energy correction           -0.000000 eV
 added-field ion interaction         -0.000023 eV  (added to PSCEN)


 Free energy of the ion-electron system (eV)
  ---------------------------------------------------
  alpha Z        PSCENC =         0.29601316
  Ewald energy   TEWEN  =       324.17739724
  -Hartree energ DENC   =     -2883.21486474
  -exchange      EXHF   =        53.75277434
  -V(xc)+E(xc)   XCENC  =        69.96801819
  PAW double counting   =      2617.60657143    -2818.81064112
  entropy T*S    EENTRO =        -0.00000000
  eigenvalues    EBANDS =      -144.61865644
  atomic energy  EATOM  =      2777.71391631
  ---------------------------------------------------
  free energy    TOTEN  =        -3.12894629 eV

  energy without entropy =       -3.12894629  energy(sigma->0) =       -3.12894629
  exchange ACFDT corr.  =        -0.00000000  see jH, gK, PRB 81, 115126


--------------------------------------------------------------------------------------------------------


  average scaling for gradient   1.1882


 average (electrostatic) potential at core
  the test charge radii are     0.9430
  (the norm of the test charge is              1.0000)
       1 -66.9463       2 -66.9463



 E-fermi :  -5.5566     XC(G=0):  -0.1012     alpha+bet : -0.0321

 Fermi energy:        -5.5566417093

 k-point     1 :       0.0000    0.0000    0.0000
  band No.  band energies     occupation 
      1      -7.6080      2.00000
      2      -7.1472      2.00000
      3      -7.1471      2.00000
      4      -6.6523      2.00000
      5      -6.6522      2.00000
      6      -6.4301      2.00000
      7      -6.4301      2.00000
      8      -6.1774      2.00000
      9      -6.1773      2.00000
     10      -6.0831      2.00000
     11      -5.8183      2.00000
     12      -2.4738      0.00000
     13      -0.6474      0.00000
     14      -0.6471      0.00000
     15      -0.1491      0.00000
     16       0.1048      0.00000
     17       0.3336      0.00000
     18       0.3364      0.00000
     19       0.3426      0.00000
     20       0.3517      0.00000
     21       0.3859      0.00000
     22       0.4559      0.00000
     23       0.5821      0.00000
     24       0.6242      0.00000
     25       0.6479      0.00000
     26       0.6490      0.00000
     27       0.6592      0.00000
     28       0.6653      0.00000
     29       0.6769      0.00000
     30       0.6836      0.00000
     31       0.6944      0.00000
     32       0.7273      0.00000
     33       0.7472      0.00000
     34       0.8245      0.00000
     35       0.8958      0.00000
     36       0.9655      0.00000
     37       0.9860      0.00000
     38       0.9902      0.00000
     39       1.0061      0.00000
     40       1.0271      0.00000
     41       1.0402      0.00000
     42       1.0416      0.00000
     43       1.0867      0.00000
     44       1.2645      0.00000
     45       1.2752      0.00000
     46       1.2766      0.00000
     47       1.3598      0.00000
     48       1.3634      0.00000
     49       1.3834      0.00000
     50       1.4603      0.00000
     51       1.5188      0.00000
     52       1.5284      0.00000
     53       1.5452      0.00000
     54       1.5708      0.00000
     55       1.5827      0.00000
     56       1.5870      0.00000
     57       1.6162      0.00000
     58       1.6229      0.00000
     59       1.6411      0.00000
     60       1.6445      0.00000
     61       1.6470      0.00000
     62       1.6529      0.00000
     63       1.6733      0.00000
     64       1.6881      0.00000
     65       1.6885      0.00000
     66       1.6940      0.00000
     67       1.6944      0.00000
     68       1.7140      0.00000
     69       1.7266      0.00000
     70       1.7391      0.00000
     71       1.7562      0.00000
     72       1.7797      0.00000
     73       1.7809      0.00000
     74       1.8351      0.00000
     75       1.8786      0.00000
     76       1.8924      0.00000
     77       1.8931      0.00000
     78       1.9036      0.00000
     79       1.9215      0.00000
     80       1.9310      0.00000
     81       1.9553      0.00000
     82       1.9586      0.00000
     83       1.9691      0.00000
     84       1.9752      0.00000
     85       1.9813      0.00000
     86       1.9822      0.00000
     87       1.9847      0.00000
     88       1.9943      0.00000
     89       1.9967      0.00000
     90       2.0055      0.00000
     91       2.0072      0.00000
     92       2.0419      0.00000
     93       2.0959      0.00000
     94       2.1327      0.00000
     95       2.2004      0.00000
     96       2.2612      0.00000
     97       2.2616      0.00000
     98       2.2820      0.00000
     99       2.4953      0.00000
    100       2.5281      0.00000
    101       2.5423      0.00000
    102       2.5678      0.00000
    103       2.5842      0.00000
    104       2.6167      0.00000
    105       2.6394      0.00000
    106       2.6450      0.00000
    107       2.6775      0.00000
    108       2.7071      0.00000
    109       2.7181      0.00000
    110       2.7193      0.00000
    111       2.7589      0.00000
    112       2.7756      0.00000
    113       2.7875      0.00000
    114       2.8207      0.00000
    115       2.8628      0.00000
    116       2.8761      0.00000
    117       2.8764      0.00000
    118       2.8817      0.00000
    119       2.8933      0.00000
    120       2.9065      0.00000
    121       2.9172      0.00000
    122       2.9187      0.00000
    123       2.9243      0.00000
    124       2.9341      0.00000
    125       2.9356      0.00000
    126       2.9470      0.00000
    127       2.9563      0.00000
    128       2.9671      0.00000
    129       2.9720      0.00000
    130       2.9781      0.00000
    131       2.9915      0.00000
    132       2.9943      0.00000
    133       2.9968      0.00000
    134       3.0004      0.00000
    135       3.0012      0.00000
    136       3.0510      0.00000
    137       3.0537      0.00000
    138       3.0811      0.00000
    139       3.0929      0.00000
    140       3.0979      0.00000
    141       3.1101      0.00000
    142       3.1143      0.00000
    143       3.1200      0.00000
    144       3.1281      0.00000
    145       3.1419      0.00000
    146       3.2324      0.00000
    147       3.2367      0.00000
    148       3.2537      0.00000
    149       3.2899      0.00000
    150       3.3032      0.00000
    151       3.3080      0.00000
    152       3.3138      0.00000
    153       3.3383      0.00000
    154       3.3391      0.00000
    155       3.3419      0.00000
    156       3.3591      0.00000
    157       3.3619      0.00000
    158       3.3666      0.00000
    159       3.3671      0.00000
    160       3.3680      0.00000
    161       3.3699      0.00000
    162       3.3906      0.00000
    163       3.3986      0.00000
    164       3.4080      0.00000
    165       3.4284      0.00000
    166       3.4443      0.00000
    167       3.4820      0.00000
    168       3.5071      0.00000
    169       3.5274      0.00000
    170       3.5408      0.00000
    171       3.5568      0.00000
    172       3.5620      0.00000
    173       3.6053      0.00000
    174       3.6204      0.00000
    175       3.6306      0.00000
    176       3.6328      0.00000
    177       3.6406      0.00000
    178       3.6497      0.00000
    179       3.6678      0.00000
    180       3.6732      0.00000
    181       3.6778      0.00000
    182       3.7325      0.00000
    183       3.7348      0.00000
    184       3.7494      0.00000
    185       3.7611      0.00000
    186       3.7700      0.00000
    187       3.7940      0.00000
    188       3.8415      0.00000
    189       3.8518      0.00000
    190       3.9442      0.00000
    191       3.9452      0.00000
    192       3.9508      0.00000
    193       3.9566      0.00000
    194       3.9596      0.00000
    195       3.9701      0.00000
    196       3.9925      0.00000
    197       4.0203      0.00000
    198       4.0363      0.00000
    199       4.0439      0.00000
    200       4.1134      0.00000
    201       4.1377      0.00000
    202       4.1519      0.00000
    203       4.1709      0.00000
    204       4.1863      0.00000
    205       4.2006      0.00000
    206       4.2014      0.00000
    207       4.2099      0.00000
    208       4.2145      0.00000
    209       4.2428      0.00000
    210       4.2680      0.00000
    211       4.3080      0.00000
    212       4.3184      0.00000
    213       4.3307      0.00000
    214       4.3341      0.00000
    215       4.3411      0.00000
    216       4.3448      0.00000
    217       4.3495      0.00000
    218       4.3549      0.00000
    219       4.3591      0.00000
    220       4.3637      0.00000
    221       4.3722      0.00000
    222       4.4130      0.00000
    223       4.4185      0.00000
    224       4.4386      0.00000
    225       4.4392      0.00000
    226       4.4495      0.00000
    227       4.4528      0.00000
    228       4.4548      0.00000
    229       4.4583      0.00000
    230       4.4605      0.00000
    231       4.4772      0.00000
    232       4.4822      0.00000
    233       4.4974      0.00000
    234       4.5035      0.00000
    235       4.5160      0.00000
    236       4.5255      0.00000
    237       4.5384      0.00000
    238       4.5426      0.00000
    239       4.5453      0.00000
    240       4.5491      0.00000
    241       4.5516      0.00000
    242       4.5660      0.00000
    243       4.5700      0.00000
    244       4.5766      0.00000
    245       4.5851      0.00000
    246       4.6083      0.00000
    247       4.6166      0.00000
    248       4.6216      0.00000
    249       4.6240      0.00000
    250       4.6597      0.00000
    251       4.6629      0.00000
    252       4.6642      0.00000
    253       4.6673      0.00000
    254       4.6717      0.00000
    255       4.6735      0.00000
    256       4.7309      0.00000


--------------------------------------------------------------------------------------------------------


 soft charge-density along one line, spin component           1
         0         1         2         3         4         5         6         7         8         9
 total charge-density along one line

 pseudopotential strength for first ion, spin component:           1
 -7.186  -0.000  -0.039   0.000  -0.000  -1.744   0.000   0.027
 -0.000  -7.149  -0.000   0.030   0.000   0.000  -1.769   0.000
 -0.039  -0.000  -7.141   0.000  -0.000   0.027   0.000  -1.775
  0.000   0.030   0.000  -7.149   0.000  -0.000  -0.022  -0.000
 -0.000   0.000  -0.000   0.000  -7.179   0.000  -0.000   0.000
 -1.744   0.000   0.027  -0.000   0.000   8.350  -0.000  -0.013
  0.000  -1.769   0.000  -0.022  -0.000  -0.000   8.361  -0.000
  0.027   0.000  -1.775  -0.000   0.000  -0.013  -0.000   8.365
 -0.000  -0.022  -0.000  -1.769  -0.000  -0.000   0.012   0.000
  0.000  -0.000   0.000  -0.000  -1.747  -0.000   0.000  -0.000
 -0.013   0.000  -0.008   0.000  -0.000  -0.001   0.000  -0.001
 -0.024   0.000  -0.014   0.000  -0.000  -0.004   0.000  -0.002
  0.021  -0.000   0.012  -0.000   0.021  -0.013  -0.000  -0.008
 -0.000  -0.021  -0.000   0.021   0.000  -0.000   0.011   0.000
 -0.021  -0.000  -0.012  -0.000   0.021   0.013  -0.000   0.008
  0.025  -0.000   0.014   0.000   0.022  -0.012  -0.000  -0.007
  0.000  -0.022  -0.000   0.022  -0.000  -0.000   0.008   0.000
 -0.025   0.000  -0.014  -0.000   0.022   0.012  -0.000   0.007
 total augmentation occupancy for first ion, spin component:           1
  1.997   0.000  -0.004   0.000   0.000   0.014   0.000   0.013   0.000  -0.000   0.086   0.001  -0.066   0.000   0.066   0.028
  0.000   2.001   0.000   0.002   0.000  -0.000  -0.003   0.000  -0.006   0.000   0.000   0.000   0.000   0.032   0.000   0.000
 -0.004   0.000   2.001   0.000  -0.000   0.013  -0.000  -0.002   0.000   0.000   0.049   0.001  -0.038   0.000   0.038   0.016
  0.000   0.002   0.000   2.001   0.000  -0.000  -0.006  -0.000  -0.003  -0.000   0.000   0.000   0.000  -0.032  -0.000   0.000
  0.000   0.000  -0.000   0.000   1.999  -0.000   0.000   0.000   0.000   0.003  -0.000  -0.000  -0.032  -0.000  -0.032   0.029
  0.014  -0.000   0.013   0.000  -0.000   0.007   0.000   0.004   0.000  -0.000  -0.082   0.010  -0.014   0.000   0.014   0.002
  0.000  -0.003  -0.000  -0.006   0.000   0.000   0.002  -0.000  -0.001  -0.000   0.000   0.000   0.000   0.004   0.000   0.000
  0.013   0.000  -0.002  -0.000   0.000   0.004  -0.000   0.002  -0.000  -0.000  -0.047   0.006  -0.008  -0.000   0.008   0.001
  0.000  -0.006   0.000  -0.003   0.000   0.000  -0.001  -0.000   0.002   0.000   0.000  -0.000   0.000  -0.004   0.000   0.000
 -0.000   0.000   0.000  -0.000   0.003  -0.000  -0.000  -0.000   0.000   0.003   0.000  -0.000  -0.004  -0.000  -0.004   0.000
  0.086   0.000   0.049   0.000  -0.000  -0.082   0.000  -0.047   0.000   0.000   1.901  -0.220   0.214   0.000  -0.214  -0.021
  0.001   0.000   0.001   0.000  -0.000   0.010   0.000   0.006   0.000  -0.000  -0.220   0.026  -0.026   0.000   0.026   0.003
 -0.066   0.000  -0.038   0.000  -0.032  -0.014   0.000  -0.008   0.000  -0.004   0.214  -0.026   0.040  -0.000  -0.028  -0.005
  0.000   0.032  -0.000  -0.032  -0.000   0.000   0.004   0.000  -0.004  -0.000   0.000  -0.000   0.000   0.012   0.000   0.000
  0.066   0.000   0.038  -0.000  -0.032   0.014   0.000   0.008   0.000  -0.004  -0.214   0.026  -0.028   0.000   0.040   0.004
  0.028   0.000   0.016   0.000   0.029   0.002   0.000   0.001   0.000   0.000  -0.021   0.003  -0.005  -0.000   0.004   0.001
  0.000  -0.029   0.000   0.029   0.000   0.000  -0.000   0.000   0.000   0.000  -0.000   0.000   0.000  -0.002  -0.000   0.000
 -0.028  -0.000  -0.016   0.000   0.029  -0.002   0.000  -0.001   0.000   0.000   0.021  -0.003   0.004   0.000  -0.005  -0.000


------------------------ aborting loop because EDIFF is reached ----------------------------------------


    FORLOC:  cpu time      0.0008: real time      0.0008
    FORHF :  cpu time      1.3003: real time      1.3009
    FORNL :  cpu time      0.1200: real time      0.1204
    FORCOR:  cpu time      0.4676: real time      0.4678
    OFIELD:  cpu time      0.0002: real time      0.0002

  DFT-D2 method for vdW energy calculation
  -------------------------------------------------------------------

  Parameters of vdW forcefield:
         C6(Jnm^6/mol)     R0(A)
   -----------------------------
   Cu      10.800          1.562

  vdW correction parametrized for the method          

  IVDW =   1
  VDW_RADIUS =    50.000 A
  VDW_S6 =     1.050
  VDW_SR =     1.000
  VDW_D =    20.000
  LVDW_EWALD = F

  Number of pair interactions contributing to vdW energy:     169
  Edisp (eV):   -0.00309
    FORVDW:  cpu time      0.0001: real time      0.0001

 VOLUME and BASIS-vectors are now :
 -----------------------------------------------------------------------------
  energy-cutoff  :      520.00
  volume of cell :     9881.61
      direct lattice vectors                 reciprocal lattice vectors
    21.138852197  0.000000000  0.000000000     0.047306258  0.000000000  0.000000000
     0.000000000 21.138852197  0.000000000     0.000000000  0.047306258  0.000000000
     0.000000000  0.000000000 22.113885220     0.000000000  0.000000000  0.045220457

  length of vectors
    21.138852197 21.138852197 22.113885220     0.047306258  0.047306258  0.045220457


 FORCES acting on ions:
    Electron-Ion                     Ewald-Force                    Non-Local-Force
 -----------------------------------------------------------------------------------------------
   -.256E+03 0.256E+03 0.149E-04   0.247E+03 -.247E+03 -.827E-16   0.879E+01 -.879E+01 -.109E-20
   0.256E+03 -.256E+03 0.149E-04   -.247E+03 0.247E+03 -.862E-17   -.879E+01 0.879E+01 -.164E-20
 -----------------------------------------------------------------------------------------------
   0.237E-04 -.132E-03 0.307E-04   0.000E+00 0.000E+00 -.913E-16   0.000E+00 0.178E-14 -.274E-20


 POSITION                                       TOTAL-FORCE (eV/Angst)
 -----------------------------------------------------------------------------------
     10.29957      8.72540     14.01778         0.129623     -0.129623      0.000000
      8.72540     10.29957     14.01778        -0.129623      0.129623     -0.000000
 -----------------------------------------------------------------------------------
    total drift:                                0.000024     -0.000132      0.000031


--------------------------------------------------------------------------------------------------------



  FREE ENERGIE OF THE ION-ELECTRON SYSTEM (eV)
  ---------------------------------------------------
  free  energy   TOTEN  =        -3.13203666 eV

  energy  without entropy=       -3.13203666  energy(sigma->0) =       -3.13203666



--------------------------------------------------------------------------------------------------------


    POTLOK:  cpu time      0.5325: real time      0.5326


--------------------------------------------------------------------------------------------------------


     LOOP+:  cpu time   1374.9337: real time   1375.9511
    4ORBIT:  cpu time      0.0000: real time      0.0000

 total amount of memory used by VASP MPI-rank0  1210289. kBytes
=======================================================================

   base      :      30000. kBytes
   nonlr-proj:       1109. kBytes
   fftplans  :      61791. kBytes
   grid      :      48291. kBytes
   one-center:         15. kBytes
   HF        :         64. kBytes
   wavefun   :       3207. kBytes
   fock_wrk  :    1065812. kBytes

  
  
 General timing and accounting informations for this job:
 ========================================================
  
                  Total CPU time used (sec):     1464.742
                            User time (sec):     1428.373
                          System time (sec):       36.369
                         Elapsed time (sec):     1474.637
  
                   Maximum memory used (kb):     2576792.
                   Average memory used (kb):          N/A
  
                          Minor page faults:      4166504
                          Major page faults:           49
                 Voluntary context switches:        50073
