 vasp.6.3.0 20Jan22 (build Apr  1 2022 16:44:48) complex                         
 executed on        HPECrayEX_GCC date 2022.08.15  21:39:40
 running  512 mpi-ranks, with    1 threads/rank
 distrk:  each k-point on  256 cores,    2 groups
 distr:  one band on NCORE=   4 cores,   64 groups


--------------------------------------------------------------------------------------------------------


 INCAR:
   SYSTEM = MgO-rocksalt
   ISMEAR = 0
   SIGMA = 0.05
   EDIFF = 1E-6
   ALGO = ALL
   ISTART = 0
   IBRION = -1
   NSW = 0
   ISYM = 2
   DIPOL = 0.5 0.5 0.5
   IDIPOL = 3
   LDIPOL = .TRUE.
   GGA = RE
   LUSE_VDW = .TRUE.
   AGGAC = 0.0
   ENCUT = 520
   PREC = Accurate
   LASPH = .TRUE.
   LREAL = Auto
   ISPIN = 1
   NELM = 200
   NELMIN = 8
   NCORE = 4
   KPAR = 2
   LWAVE = .FALSE.
   LCHARG = .FALSE.

 POTCAR:    PAW_PBE Ag 02Apr2005                  
 -----------------------------------------------------------------------------
|                                                                             |
|               ----> ADVICE to this user running VASP <----                  |
|                                                                             |
|     You have switched on vdW-DFT.                                           |
|     This routine was written and supplied by Jiri Klimes. We recommend      |
|     that you carefully read and cite the following publications:            |
|       J. Klimes, D.R. Bowler, A. Michelides                                 |
|          J. Phys.: Cond Matt. 22 022201 (2010)                              |
|       J. Klimes, D.R. Bowler, A. Michelides                                 |
|          Phys. Rev. B. 83, 195131 (2011)                                    |
|     and references therein.                                                 |
|                                                                             |
 -----------------------------------------------------------------------------

 POTCAR:    PAW_PBE Ag 02Apr2005                  
   SHA256 =  6550cfa3543261e132c169e1b98a529204624d72be14e2da2e0242bcb74a174d Ag/POTCAR             
   COPYR  = (c) Copyright 02Apr2005 Georg Kresse                                                    
   COPYR  = This file is part of the software VASP. Any use, copying, and all other rights are regul
   COPYR  = If you do not have a valid VASP license, you may not use, copy or distribute this file. 
   VRHFIN =Ag : s1 d10                                                                              
   LEXCH  = PE                                                                                      
   EATOM  =  1037.2675 eV,   76.2370 Ry                                                             
                                                                                                    
   TITEL  = PAW_PBE Ag 02Apr2005                                                                    
   LULTRA =        F    use ultrasoft PP ?                                                          
   IUNSCR =        1    unscreen: 0-lin 1-nonlin 2-no                                               
   RPACOR =    2.000    partial core radius                                                         
   POMASS =  107.868; ZVAL   =   11.000    mass and valenz                                          
   RCORE  =    2.500    outmost cutoff radius                                                       
   RWIGS  =    2.840; RWIGS  =    1.503    wigner-seitz radius (au A)                               
   ENMAX  =  249.844; ENMIN  =  187.383 eV                                                          
   ICORE  =        3    local potential                                                             
   LCOR   =        T    correct aug charges                                                         
   LPAW   =        T    paw PP                                                                      
   EAUG   =  412.496                                                                                
   DEXC   =    0.000                                                                                
   RMAX   =    2.560    core radius for proj-oper                                                   
   RAUG   =    1.300    factor for augmentation sphere                                              
   RDEP   =    2.576    radius for radial grids                                                     
   RDEPT  =    2.072    core radius for aug-charge                                                  
                                                                                                    
   Atomic configuration                                                                             
   12 entries                                                                                       
     n  l   j            E        occ.                                                              
     1  0  0.50    -25324.9161   2.0000                                                             
     2  0  0.50     -3728.5341   2.0000                                                             
     2  1  1.50     -3344.0404   6.0000                                                             
     3  0  0.50      -683.5581   2.0000                                                             
     3  1  1.50      -557.3225   6.0000                                                             
     3  2  2.50      -358.3853  10.0000                                                             
     4  0  0.50       -95.0341   2.0000                                                             
     4  1  1.50       -58.5511   6.0000                                                             
     4  2  2.50        -7.4440  10.0000                                                             
     5  0  0.50        -4.4045   1.0000                                                             
     5  1  0.50        -1.3606   0.0000                                                             
     4  3  2.50        -1.3606   0.0000                                                             
   Description                                                                                      
     l       E           TYP  RCUT    TYP  RCUT                                                     
     2     -7.4439781     23  2.400                                                                 
     2     -8.8045607     23  2.400                                                                 
     0     -4.4044681     23  2.400                                                                 
     0      1.9520038     23  2.400                                                                 
     1     -1.3605826     23  2.500                                                                 
     1     27.2116520     23  2.500                                                                 
     3     -4.0817478     23  2.400                                                                 
  local pseudopotential read in
  partial core-charges read in
  partial kinetic energy density read in
  atomic valenz-charges read in
  non local Contribution for L=           2  read in
    real space projection operators read in
  non local Contribution for L=           2  read in
    real space projection operators read in
  non local Contribution for L=           0  read in
    real space projection operators read in
  non local Contribution for L=           0  read in
    real space projection operators read in
  non local Contribution for L=           1  read in
    real space projection operators read in
  non local Contribution for L=           1  read in
    real space projection operators read in
    PAW grid and wavefunctions read in

   number of l-projection  operators is LMAX  =           6
   number of lm-projection operators is LMMAX =          18

 -----------------------------------------------------------------------------
|                                                                             |
|               ----> ADVICE to this user running VASP <----                  |
|                                                                             |
|     You have a (more or less) 'small supercell' and for smaller cells       |
|     it is recommended to use the reciprocal-space projection scheme!        |
|     The real-space optimization is not efficient for small cells and it     |
|     is also less accurate ...                                               |
|     Therefore, set LREAL=.FALSE. in the INCAR file.                         |
|                                                                             |
 -----------------------------------------------------------------------------

 Optimization of the real space projectors (new method)

 maximal supplied QI-value         = 15.12
 optimisation between [QCUT,QGAM] = [ 11.64, 23.28] = [ 37.95,151.78] Ry 
 Optimized for a Real-space Cutoff    1.45 Angstroem

   l    n(q)    QCUT    max X(q) W(low)/X(q) W(high)/X(q)  e(spline) 
   2      9    11.641    53.897    0.22E-03    0.42E-04    0.28E-06
   2      9    11.641    52.416    0.23E-03    0.44E-04    0.29E-06
   0     10    11.641   122.045    0.51E-04    0.25E-04    0.16E-06
   0     10    11.641    73.629    0.49E-04    0.24E-04    0.16E-06
   1     10    11.641    15.255    0.99E-04    0.55E-04    0.11E-06
   1     10    11.641     9.562    0.81E-04    0.47E-04    0.95E-07
 -----------------------------------------------------------------------------
|                                                                             |
|               ----> ADVICE to this user running VASP <----                  |
|                                                                             |
|     You enforced a specific xc type in the INCAR file but a different       |
|     type was found in the POTCAR file.                                      |
|     I HOPE YOU KNOW WHAT YOU ARE DOING!                                     |
|                                                                             |
 -----------------------------------------------------------------------------

  PAW_PBE Ag 02Apr2005                  :
 energy of atom  1       EATOM=-1037.2675
 kinetic energy error for atom=    0.0047 (will be added to EATOM!!)


 POSCAR: Ag
  positions in direct lattice
  No initial velocities read in
 exchange correlation table for  LEXCH =       40
   RHO(1)=    0.500       N(1)  =     2000
   RHO(2)=  100.500       N(2)  =     4000



--------------------------------------------------------------------------------------------------------


 ion  position               nearest neighbor table
   1  0.543  0.557  0.623-   2 2.59
   2  0.457  0.643  0.623-   1 2.59

  LATTYP: Found a simple tetragonal cell.
 ALAT       =    21.1388521970
 C/A-ratio  =     1.0461251639
  
  Lattice vectors:
  
 A1 = (  21.1388521970,   0.0000000000,   0.0000000000)
 A2 = (   0.0000000000,  21.1388521970,   0.0000000000)
 A3 = (   0.0000000000,   0.0000000000,  22.1138852197)


Analysis of symmetry for initial positions (statically):
=====================================================================
 Subroutine PRICEL returns:
 Original cell was already a primitive cell.
 

 Routine SETGRP: Setting up the symmetry group for a 
 simple tetragonal supercell.


 Subroutine GETGRP returns: Found  8 space group operations
 (whereof  1 operations were pure point group operations)
 out of a pool of 16 trial point group operations.


The static configuration has the point symmetry C_1 .
 The point group associated with its full space group is D_2h.


Analysis of symmetry for dynamics (positions and initial velocities):
=====================================================================
 Subroutine PRICEL returns:
 Original cell was already a primitive cell.
 

 Routine SETGRP: Setting up the symmetry group for a 
 simple tetragonal supercell.


 Subroutine GETGRP returns: Found  8 space group operations
 (whereof  1 operations were pure point group operations)
 out of a pool of 16 trial point group operations.


The dynamic configuration has the point symmetry C_1 .
 The point group associated with its full space group is D_2h.


 Subroutine INISYM returns: Found  8 space group operations
 (whereof  1 operations are pure point group operations),
 and found     1 'primitive' translations


----------------------------------------------------------------------------------------

                                     Primitive cell                                     

  volume of cell :    9881.6133

  direct lattice vectors                    reciprocal lattice vectors
    21.138852197  0.000000000  0.000000000     0.047306258  0.000000000  0.000000000
     0.000000000 21.138852197  0.000000000     0.000000000  0.047306258  0.000000000
     0.000000000  0.000000000 22.113885220     0.000000000  0.000000000  0.045220457

  length of vectors
    21.138852197 21.138852197 22.113885220     0.047306258  0.047306258  0.045220457

  position of ions in fractional coordinates (direct lattice)
     0.543264150  0.556735814  0.623371474
     0.456735850  0.643264114  0.623371474

  ion indices of the primitive-cell ions
   primitive index   ion index
                 1           1
                 2           2

----------------------------------------------------------------------------------------



 KPOINTS: KPOINTS created by Atomic Simulation Env

Automatic generation of k-mesh.
 Grid dimensions read from file:
 generate k-points for:    1    1    1

 Generating k-lattice:

  Cartesian coordinates                     Fractional coordinates (reciprocal lattice)
     0.047306258  0.000000000  0.000000000     1.000000000  0.000000000  0.000000000
     0.000000000  0.047306258  0.000000000     0.000000000  1.000000000  0.000000000
     0.000000000  0.000000000  0.045220457     0.000000000  0.000000000  1.000000000

  Length of vectors
     0.047306258  0.047306258  0.045220457

  Shift w.r.t. Gamma in fractional coordinates (k-lattice)
     0.000000000  0.000000000  0.000000000

 
 Subroutine IBZKPT returns following result:
 ===========================================
 
 Found      1 irreducible k-points:
 
 Following reciprocal coordinates:
            Coordinates               Weight
  0.000000  0.000000  0.000000      1.000000
 
 Following cartesian coordinates:
            Coordinates               Weight
  0.000000  0.000000  0.000000      1.000000
 


--------------------------------------------------------------------------------------------------------




 Dimension of arrays:
   k-points           NKPTS =      1   k-points in BZ     NKDIM =      1   number of bands    NBANDS=     64
   number of dos      NEDOS =    301   number of ions     NIONS =      2
   non local maximal  LDIM  =      6   non local SUM 2l+1 LMDIM =     18
   total plane-waves  NPLWV = ******
   max r-space proj   IRMAX =   5559   max aug-charges    IRDMAX=  21597
   dimension x,y,z NGX =   160 NGY =  160 NGZ =  168
   dimension x,y,z NGXF=   320 NGYF=  320 NGZF=  336
   support grid    NGXF=   320 NGYF=  320 NGZF=  336
   ions per type =               2
   NGX,Y,Z   is equivalent  to a cutoff of  12.58, 12.58, 12.63 a.u.
   NGXF,Y,Z  is equivalent  to a cutoff of  25.17, 25.17, 25.26 a.u.

 SYSTEM =  MgO-rocksalt                            
 POSCAR =  Ag                                      

 Startparameter for this run:
   NWRITE =      2    write-flag & timer
   PREC   = accura    normal or accurate (medium, high low for compatibility)
   ISTART =      0    job   : 0-new  1-cont  2-samecut
   ICHARG =      2    charge: 1-file 2-atom 10-const
   ISPIN  =      1    spin polarized calculation?
   LNONCOLLINEAR =      F non collinear calculations
   LSORBIT =      F    spin-orbit coupling
   INIWAV =      1    electr: 0-lowe 1-rand  2-diag
   LASPH  =      T    aspherical Exc in radial PAW
 Electronic Relaxation 1
   ENCUT  =  520.0 eV  38.22 Ry    6.18 a.u.  39.30 39.30 41.12*2*pi/ulx,y,z
   ENINI  =  520.0     initial cutoff
   ENAUG  =  412.5 eV  augmentation charge cutoff
   NELM   =    200;   NELMIN=  8; NELMDL= -5     # of ELM steps 
   EDIFF  = 0.1E-05   stopping-criterion for ELM
   LREAL  =      T    real-space projection
   NLSPLINE    = F    spline interpolate recip. space projectors
   LCOMPAT=      F    compatible to vasp.4.4
   GGA_COMPAT  = T    GGA compatible to vasp.4.4-vasp.4.6
   LMAXPAW     = -100 max onsite density
   LMAXMIX     =    2 max onsite mixed and CHGCAR
   VOSKOWN=      0    Vosko Wilk Nusair interpolation
   ROPT   =   -0.00025
 Ionic relaxation
   EDIFFG = 0.1E-04   stopping-criterion for IOM
   NSW    =      0    number of steps for IOM
   NBLOCK =      1;   KBLOCK =      1    inner block; outer block 
   IBRION =     -1    ionic relax: 0-MD 1-quasi-New 2-CG
   NFREE  =      0    steps in history (QN), initial steepest desc. (CG)
   ISIF   =      2    stress and relaxation
   IWAVPR =     10    prediction:  0-non 1-charg 2-wave 3-comb
   ISYM   =      2    0-nonsym 1-usesym 2-fastsym
   LCORR  =      T    Harris-Foulkes like correction to forces

   POTIM  = 0.5000    time-step for ionic-motion
   TEIN   =    0.0    initial temperature
   TEBEG  =    0.0;   TEEND  =   0.0 temperature during run
   SMASS  =  -3.00    Nose mass-parameter (am)
   estimated Nose-frequenzy (Omega)   =  0.10E-29 period in steps = 0.13E+47 mass=  -0.102E-25a.u.
   SCALEE = 1.0000    scale energy and forces
   NPACO  =    256;   APACO  = 10.0  distance and # of slots for P.C.
   PSTRESS=    0.0 pullay stress

  Mass of Ions in am
   POMASS = 107.87
  Ionic Valenz
   ZVAL   =  11.00
  Atomic Wigner-Seitz radii
   RWIGS  =  -1.00
  virtual crystal weights 
   VCA    =   1.00
   NELECT =      22.0000    total number of electrons
   NUPDOWN=      -1.0000    fix difference up-down

 DOS related values:
   EMIN   =  10.00;   EMAX   =-10.00  energy-range for DOS
   EFERMI =   0.00
   ISMEAR =     0;   SIGMA  =   0.05  broadening in eV -4-tet -1-fermi 0-gaus

 Electronic relaxation 2 (details)
   IALGO  =     58    algorithm
   LDIAG  =      T    sub-space diagonalisation (order eigenvalues)
   LSUBROT=      F    optimize rotation matrix (better conditioning)
   TURBO    =      0    0=normal 1=particle mesh
   IRESTART =      0    0=no restart 2=restart with 2 vectors
   NREBOOT  =      0    no. of reboots
   NMIN     =      0    reboot dimension
   EREF     =   0.00    reference energy to select bands
   IMIX   =      4    mixing-type and parameters
     AMIX     =   0.40;   BMIX     =  1.00
     AMIX_MAG =   1.60;   BMIX_MAG =  1.00
     AMIN     =   0.10
     WC   =   100.;   INIMIX=   1;  MIXPRE=   1;  MAXMIX= -45

 Intra band minimization:
   WEIMIN = 0.0000     energy-eigenvalue tresh-hold
   EBREAK =  0.39E-08  absolut break condition
   DEPER  =   0.30     relativ break condition  

   TIME   =   0.40     timestep for ELM

  volume/ion in A,a.u.               =    4940.81     33342.21
  Fermi-wavevector in a.u.,A,eV,Ry     =   0.213767  0.403960  0.621734  0.045696
  Thomas-Fermi vector in A             =   0.985879

 Write flags
   LWAVE        =      F    write WAVECAR
   LDOWNSAMPLE  =      F    k-point downsampling of WAVECAR
   LCHARG       =      F    write CHGCAR
   LVTOT        =      F    write LOCPOT, total local potential
   LVHAR        =      F    write LOCPOT, Hartree potential only
   LELF         =      F    write electronic localiz. function (ELF)
   LORBIT       =      0    0 simple, 1 ext, 2 COOP (PROOUT), +10 PAW based schemes


 Dipole corrections
   LMONO  =      F    monopole corrections only (constant potential shift)
   LDIPOL =      T    correct potential (dipole corrections)
   IDIPOL =      3    1-x, 2-y, 3-z, 4-all directions 
   EPSILON=  1.0000000 bulk dielectric constant

 Exchange correlation treatment:
   GGA     =    RE    GGA type
   LEXCH   =    40    internal setting for exchange type
   LIBXC   =     F    Libxc                    
   VOSKOWN =     0    Vosko Wilk Nusair interpolation
   LHFCALC =     F    Hartree Fock is set to
   LHFONE  =     F    Hartree Fock one center treatment
   AEXX    =    0.0000 exact exchange contribution

 vdW DFT:
   LUSE_VDW   =     T    switch on vdW DFT
   Zab_VDW    =-.8491    correlation parameter
   PARAM1     =0.1234
   PARAM2     =1.0000
   PARAM3     =0.0000
   -- rVV10 --
   BPARAM     = 6.3000
   CPARAM     = 0.0093

 Linear response parameters
   LEPSILON=     F    determine dielectric tensor
   LRPA    =     F    only Hartree local field effects (RPA)
   LNABLA  =     F    use nabla operator in PAW spheres
   LVEL    =     F    velocity operator in full k-point grid
   CSHIFT  =0.1000    complex shift for real part using Kramers Kronig
   OMEGAMAX=  -1.0    maximum frequency
   DEG_THRESHOLD= 0.2000000E-02 threshold for treating states as degnerate
   RTIME   =   -0.100 relaxation time in fs
  (WPLASMAI=    0.000 imaginary part of plasma frequency in eV, 0.658/RTIME)
   DFIELD  = 0.0000000 0.0000000 0.0000000 field for delta impulse in time

  Optional k-point grid parameters
   LKPOINTS_OPT  =     F    use optional k-point grid
   KPOINTS_OPT_MODE=     1    mode for optional k-point grid

 Orbital magnetization related:
   ORBITALMAG=     F  switch on orbital magnetization
   LCHIMAG   =     F  perturbation theory with respect to B field
   DQ        =  0.001000  dq finite difference perturbation B field
   LLRAUG    =     F  two centre corrections for induced B field



--------------------------------------------------------------------------------------------------------


 Static calculation
 charge density and potential will be updated during run
 non-spin polarized calculation
 Conjugate gradient for all bands (Freysoldt, et al. PRB 79, 241103 (2009))
 preconditioned conjugated gradient                                        
 perform sub-space diagonalisation
    before iterative eigenvector-optimisation
 modified Broyden-mixing scheme, WC =      100.0
 initial mixing is a Kerker type mixing with AMIX =  0.4000 and BMIX =      1.0000
 Hartree-type preconditioning will be used
 using additional bands           53
 real space projection scheme for non local part
 use partial core corrections
 no Harris-corrections to forces 
 use gradient corrections 
 use of overlap-Matrix (Vanderbilt PP)
 Gauss-broadening in eV      SIGMA  =   0.05


--------------------------------------------------------------------------------------------------------


  energy-cutoff  :      520.00
  volume of cell :     9881.61
      direct lattice vectors                 reciprocal lattice vectors
    21.138852197  0.000000000  0.000000000     0.047306258  0.000000000  0.000000000
     0.000000000 21.138852197  0.000000000     0.000000000  0.047306258  0.000000000
     0.000000000  0.000000000 22.113885220     0.000000000  0.000000000  0.045220457

  length of vectors
    21.138852197 21.138852197 22.113885220     0.047306258  0.047306258  0.045220457



 k-points in units of 2pi/SCALE and weight: KPOINTS created by Atomic Simulation Env
   0.00000000  0.00000000  0.00000000       1.000

 k-points in reciprocal lattice and weights: KPOINTS created by Atomic Simulation Env
   0.00000000  0.00000000  0.00000000       1.000

 position of ions in fractional coordinates (direct lattice) 
   0.54326415  0.55673581  0.62337147
   0.45673585  0.64326411  0.62337147

 position of ions in cartesian coordinates  (Angst):
  11.48398057 11.76875609 13.78516522
   9.65487163 13.59786503 13.78516522



--------------------------------------------------------------------------------------------------------


 k-point   1 :   0.0000 0.0000 0.0000  plane waves:  265979

 maximum and minimum number of plane-waves per node :     66495    66494

 maximum number of plane-waves:    265979
 maximum index in each direction: 
   IXMAX=   39   IYMAX=   39   IZMAX=   41
   IXMIN=  -39   IYMIN=  -39   IZMIN=  -41


 real space projection operators:
  total allocation   :       1499.62 KBytes
  max/ min on nodes  :        376.17        373.22


 parallel 3D FFT for wavefunctions:
    minimum data exchange during FFTs selected (reduces bandwidth)
 parallel 3D FFT for charge:
    minimum data exchange during FFTs selected (reduces bandwidth)


 total amount of memory used by VASP MPI-rank0   125749. kBytes
=======================================================================

   base      :      30000. kBytes
   nonlr-proj:        645. kBytes
   fftplans  :      38424. kBytes
   grid      :      53473. kBytes
   one-center:         15. kBytes
   wavefun   :       3192. kBytes

     INWAV:  cpu time      0.0001: real time      0.0004
 Broyden mixing: mesh for mixing (old mesh)
   NGX = 79   NGY = 79   NGZ = 83
  (NGX  =320   NGY  =320   NGZ  =336)
  gives a total of 518003 points

 initial charge density was supplied:
 charge density of overlapping atoms calculated
 number of electron      22.0000000 magnetization 
 keeping initial charge density in first step


--------------------------------------------------------------------------------------------------------


 Maximum index for non-local projection operator         1327
 Maximum index for augmentation-charges            0 (set IRDMAX)


--------------------------------------------------------------------------------------------------------


 First call to EWALD:  gamma=   0.083
 Maximum number of real-space cells 3x 3x 3
 Maximum number of reciprocal cells 3x 3x 3

    FEWALD:  cpu time      0.0007: real time      0.0007


--------------------------------------- Iteration      1(   1)  ---------------------------------------


vdW kernel read from vdw_kernel.bindat
  0.0000  0.2424  0.5071  0.7962  1.1119  1.4567  1.8333  2.2446  2.6937  3.1842
  3.7199  4.3049  4.9438  5.6415  6.4036  7.2358  8.1446  9.1372 10.2212 11.4050
 12.6979 14.1099 15.6519 17.3360 19.1751 21.1837 23.3773 25.7729 28.3892 31.2465
 34.3669 37.7748 41.4965 45.5611 50.0000

    POTLOK:  cpu time      2.1019: real time      2.1164
    SETDIJ:  cpu time      0.1040: real time      0.1041
    TRIAL :  cpu time      0.4350: real time      0.4356
    CORREC:  cpu time      0.0011: real time      0.0011
    --------------------------------------------
      LOOP:  cpu time      2.6444: real time      2.6597

 eigenvalue-minimisations  :   128
 total energy-change (2. order) : 0.1652290E+03  (-0.3778523E+03)
 number of electron      22.0000000 magnetization 
 augmentation part       22.0000000 magnetization 

 DIPCOR: dipole corrections for dipol
 direction  3 min pos     1,
 dipolmoment           0.000000      0.000000     -0.000013 electrons x Angstroem
 Tr[quadrupol]     -3640.382419

 energy correction for charged system         0.000000 eV
 dipol+quadrupol energy correction           -0.000000 eV
 added-field ion interaction          0.000015 eV  (added to PSCEN)


 Free energy of the ion-electron system (eV)
  ---------------------------------------------------
  alpha Z        PSCENC =         0.34432276
  Ewald energy   TEWEN  =       215.76430794
  -Hartree energ DENC   =     -2198.01184678
  -exchange      EXHF   =         0.00000000
  -V(xc)+E(xc)   XCENC  =       -27.51118986
  PAW double counting   =      2013.54339418    -1915.97390902
  entropy T*S    EENTRO =        -0.01396787
  eigenvalues    EBANDS =        -6.15375233
  atomic energy  EATOM  =      2083.24164537
  ---------------------------------------------------
  free energy    TOTEN  =       165.22900438 eV

  energy without entropy =      165.24297225  energy(sigma->0) =      165.23598831


--------------------------------------------------------------------------------------------------------




--------------------------------------- Iteration      1(   2)  ---------------------------------------


    TRIAL :  cpu time      0.9406: real time      0.9408
    CORREC:  cpu time      0.0004: real time      0.0004
    --------------------------------------------
      LOOP:  cpu time      0.9457: real time      0.9541

 eigenvalue-minimisations  :   256
 total energy-change (2. order) :-0.1519695E+03  (-0.1517584E+03)
 number of electron      22.0000000 magnetization 
 augmentation part       22.0000000 magnetization 

 DIPCOR: dipole corrections for dipol
 direction  3 min pos     1,
 dipolmoment           0.000000      0.000000     -0.000013 electrons x Angstroem
 Tr[quadrupol]     -3640.382419

 energy correction for charged system         0.000000 eV
 dipol+quadrupol energy correction           -0.000000 eV
 added-field ion interaction          0.000015 eV  (added to PSCEN)


 Free energy of the ion-electron system (eV)
  ---------------------------------------------------
  alpha Z        PSCENC =         0.34432276
  Ewald energy   TEWEN  =       215.76430794
  -Hartree energ DENC   =     -2198.01184678
  -exchange      EXHF   =         0.00000000
  -V(xc)+E(xc)   XCENC  =       -27.51118986
  PAW double counting   =      2013.54339418    -1915.97390902
  entropy T*S    EENTRO =        -0.00000000
  eigenvalues    EBANDS =      -158.13721660
  atomic energy  EATOM  =      2083.24164537
  ---------------------------------------------------
  free energy    TOTEN  =        13.25950798 eV

  energy without entropy =       13.25950798  energy(sigma->0) =       13.25950798


--------------------------------------------------------------------------------------------------------




--------------------------------------- Iteration      1(   3)  ---------------------------------------


    TRIAL :  cpu time      0.4258: real time      0.4258
    CORREC:  cpu time      0.0002: real time      0.0002
    --------------------------------------------
      LOOP:  cpu time      0.4303: real time      0.4389

 eigenvalue-minimisations  :   128
 total energy-change (2. order) :-0.8610859E+01  (-0.8610859E+01)
 number of electron      22.0000000 magnetization 
 augmentation part       22.0000000 magnetization 

 DIPCOR: dipole corrections for dipol
 direction  3 min pos     1,
 dipolmoment           0.000000      0.000000     -0.000013 electrons x Angstroem
 Tr[quadrupol]     -3640.382419

 energy correction for charged system         0.000000 eV
 dipol+quadrupol energy correction           -0.000000 eV
 added-field ion interaction          0.000015 eV  (added to PSCEN)


 Free energy of the ion-electron system (eV)
  ---------------------------------------------------
  alpha Z        PSCENC =         0.34432276
  Ewald energy   TEWEN  =       215.76430794
  -Hartree energ DENC   =     -2198.01184678
  -exchange      EXHF   =         0.00000000
  -V(xc)+E(xc)   XCENC  =       -27.51118986
  PAW double counting   =      2013.54339418    -1915.97390902
  entropy T*S    EENTRO =        -0.00000000
  eigenvalues    EBANDS =      -166.74807514
  atomic energy  EATOM  =      2083.24164537
  ---------------------------------------------------
  free energy    TOTEN  =         4.64864944 eV

  energy without entropy =        4.64864944  energy(sigma->0) =        4.64864944


--------------------------------------------------------------------------------------------------------




--------------------------------------- Iteration      1(   4)  ---------------------------------------


    TRIAL :  cpu time      0.9253: real time      0.9255
    CORREC:  cpu time      0.0005: real time      0.0005
    --------------------------------------------
      LOOP:  cpu time      0.9303: real time      0.9388

 eigenvalue-minimisations  :   256
 total energy-change (2. order) :-0.4151919E-01  (-0.4151919E-01)
 number of electron      22.0000000 magnetization 
 augmentation part       22.0000000 magnetization 

 DIPCOR: dipole corrections for dipol
 direction  3 min pos     1,
 dipolmoment           0.000000      0.000000     -0.000013 electrons x Angstroem
 Tr[quadrupol]     -3640.382419

 energy correction for charged system         0.000000 eV
 dipol+quadrupol energy correction           -0.000000 eV
 added-field ion interaction          0.000015 eV  (added to PSCEN)


 Free energy of the ion-electron system (eV)
  ---------------------------------------------------
  alpha Z        PSCENC =         0.34432276
  Ewald energy   TEWEN  =       215.76430794
  -Hartree energ DENC   =     -2198.01184678
  -exchange      EXHF   =         0.00000000
  -V(xc)+E(xc)   XCENC  =       -27.51118986
  PAW double counting   =      2013.54339418    -1915.97390902
  entropy T*S    EENTRO =        -0.00000000
  eigenvalues    EBANDS =      -166.78959432
  atomic energy  EATOM  =      2083.24164537
  ---------------------------------------------------
  free energy    TOTEN  =         4.60713026 eV

  energy without entropy =        4.60713026  energy(sigma->0) =        4.60713026


--------------------------------------------------------------------------------------------------------




--------------------------------------- Iteration      1(   5)  ---------------------------------------


    TRIAL :  cpu time      0.6409: real time      0.6411
    CORREC:  cpu time      0.0004: real time      0.0004
    CHARGE:  cpu time      0.6133: real time      0.6139
    --------------------------------------------
      LOOP:  cpu time      1.2583: real time      1.2676

 eigenvalue-minimisations  :   192
 total energy-change (2. order) :-0.2542365E-05  (-0.2542257E-05)
 number of electron      21.9999997 magnetization 
 augmentation part       10.6623391 magnetization 

 DIPCOR: dipole corrections for dipol
 direction  3 min pos     1,
 dipolmoment           0.000000      0.000000     -0.000013 electrons x Angstroem
 Tr[quadrupol]     -3640.382419

 energy correction for charged system         0.000000 eV
 dipol+quadrupol energy correction           -0.000000 eV
 added-field ion interaction          0.000015 eV  (added to PSCEN)


 Free energy of the ion-electron system (eV)
  ---------------------------------------------------
  alpha Z        PSCENC =         0.34432276
  Ewald energy   TEWEN  =       215.76430794
  -Hartree energ DENC   =     -2198.01184678
  -exchange      EXHF   =         0.00000000
  -V(xc)+E(xc)   XCENC  =       -27.51118986
  PAW double counting   =      2013.54339418    -1915.97390902
  entropy T*S    EENTRO =        -0.00000000
  eigenvalues    EBANDS =      -166.78959687
  atomic energy  EATOM  =      2083.24164537
  ---------------------------------------------------
  free energy    TOTEN  =         4.60712771 eV

  energy without entropy =        4.60712771  energy(sigma->0) =        4.60712771


--------------------------------------------------------------------------------------------------------




--------------------------------------- Iteration      1(   6)  ---------------------------------------


    POTLOK:  cpu time      1.7030: real time      1.7042
    SETDIJ:  cpu time      0.1033: real time      0.1033
    TRIAL :  cpu time      0.2438: real time      0.2446
    CORREC:  cpu time      2.5244: real time      2.5251
    CHARGE:  cpu time      0.6054: real time      0.6055
    --------------------------------------------
      LOOP:  cpu time      5.1929: real time      5.1960

 eigenvalue-minimisations  :     0
 total energy-change (2. order) : 0.4636320E+00  (-0.2222794E+00)
 number of electron      21.9999998 magnetization 
 augmentation part       10.6706231 magnetization 

 DIPCOR: dipole corrections for dipol
 direction  3 min pos     1,
 dipolmoment           0.000000      0.000000     -0.000403 electrons x Angstroem
 Tr[quadrupol]     -3640.367375

 energy correction for charged system         0.000000 eV
 dipol+quadrupol energy correction           -0.000000 eV
 added-field ion interaction          0.000478 eV  (added to PSCEN)


 Free energy of the ion-electron system (eV)
  ---------------------------------------------------
  alpha Z        PSCENC =         0.34430926
  Ewald energy   TEWEN  =       215.76430794
  -Hartree energ DENC   =     -2212.53914637
  -exchange      EXHF   =         0.00000000
  -V(xc)+E(xc)   XCENC  =       -27.32694496
  PAW double counting   =      2094.30703987    -1998.28342768
  entropy T*S    EENTRO =        -0.00000000
  eigenvalues    EBANDS =      -150.43702374
  atomic energy  EATOM  =      2083.24164537
  ---------------------------------------------------
  free energy    TOTEN  =         5.07075969 eV

  energy without entropy =        5.07075969  energy(sigma->0) =        5.07075969


--------------------------------------------------------------------------------------------------------




--------------------------------------- Iteration      1(   7)  ---------------------------------------


    POTLOK:  cpu time      1.7456: real time      1.7460
    SETDIJ:  cpu time      0.1025: real time      0.1025
    TRIAL :  cpu time      0.2386: real time      0.2388
    CORREC:  cpu time      2.5251: real time      2.5255
    CHARGE:  cpu time      0.5986: real time      0.5988
    --------------------------------------------
      LOOP:  cpu time      5.2150: real time      5.2252

 eigenvalue-minimisations  :     0
 total energy-change (2. order) :-0.2221232E+00  (-0.2831540E-01)
 number of electron      21.9999998 magnetization 
 augmentation part       10.7008712 magnetization 

 DIPCOR: dipole corrections for dipol
 direction  3 min pos     1,
 dipolmoment           0.000000      0.000000     -0.000362 electrons x Angstroem
 Tr[quadrupol]     -3640.379293

 energy correction for charged system         0.000000 eV
 dipol+quadrupol energy correction           -0.000000 eV
 added-field ion interaction          0.000430 eV  (added to PSCEN)


 Free energy of the ion-electron system (eV)
  ---------------------------------------------------
  alpha Z        PSCENC =         0.34496675
  Ewald energy   TEWEN  =       215.76430794
  -Hartree energ DENC   =     -2203.50797294
  -exchange      EXHF   =         0.00000000
  -V(xc)+E(xc)   XCENC  =       -27.48730188
  PAW double counting   =      2082.15218104    -1985.98624319
  entropy T*S    EENTRO =        -0.00000000
  eigenvalues    EBANDS =      -159.67294665
  atomic energy  EATOM  =      2083.24164537
  ---------------------------------------------------
  free energy    TOTEN  =         4.84863645 eV

  energy without entropy =        4.84863645  energy(sigma->0) =        4.84863645


--------------------------------------------------------------------------------------------------------




--------------------------------------- Iteration      1(   8)  ---------------------------------------


    POTLOK:  cpu time      1.7468: real time      1.7475
    SETDIJ:  cpu time      0.1009: real time      0.1010
    TRIAL :  cpu time      0.2388: real time      0.2388
    CORREC:  cpu time      2.5243: real time      2.5246
    CHARGE:  cpu time      0.6014: real time      0.6016
    --------------------------------------------
      LOOP:  cpu time      5.2248: real time      5.2263

 eigenvalue-minimisations  :     0
 total energy-change (2. order) :-0.2836761E-01  (-0.8452916E-02)
 number of electron      21.9999998 magnetization 
 augmentation part       10.6782314 magnetization 

 DIPCOR: dipole corrections for dipol
 direction  3 min pos     1,
 dipolmoment           0.000000      0.000000     -0.000070 electrons x Angstroem
 Tr[quadrupol]     -3640.374071

 energy correction for charged system         0.000000 eV
 dipol+quadrupol energy correction           -0.000000 eV
 added-field ion interaction          0.000084 eV  (added to PSCEN)


 Free energy of the ion-electron system (eV)
  ---------------------------------------------------
  alpha Z        PSCENC =         0.34457168
  Ewald energy   TEWEN  =       215.76430794
  -Hartree energ DENC   =     -2207.00506575
  -exchange      EXHF   =         0.00000000
  -V(xc)+E(xc)   XCENC  =       -27.36492838
  PAW double counting   =      2084.44587327    -1988.31342628
  entropy T*S    EENTRO =        -0.00000000
  eigenvalues    EBANDS =      -156.29270901
  atomic energy  EATOM  =      2083.24164537
  ---------------------------------------------------
  free energy    TOTEN  =         4.82026884 eV

  energy without entropy =        4.82026884  energy(sigma->0) =        4.82026884


--------------------------------------------------------------------------------------------------------




--------------------------------------- Iteration      1(   9)  ---------------------------------------


    POTLOK:  cpu time      1.7405: real time      1.7407
    SETDIJ:  cpu time      0.1031: real time      0.1031
    TRIAL :  cpu time      0.2374: real time      0.2374
    CORREC:  cpu time      2.4913: real time      2.4917
    CHARGE:  cpu time      0.5954: real time      0.5954
    --------------------------------------------
      LOOP:  cpu time      5.1724: real time      5.1816

 eigenvalue-minimisations  :     0
 total energy-change (2. order) :-0.8445375E-02  (-0.2715199E-02)
 number of electron      21.9999998 magnetization 
 augmentation part       10.6853610 magnetization 

 DIPCOR: dipole corrections for dipol
 direction  3 min pos     1,
 dipolmoment           0.000000      0.000000     -0.000011 electrons x Angstroem
 Tr[quadrupol]     -3640.373089

 energy correction for charged system         0.000000 eV
 dipol+quadrupol energy correction           -0.000000 eV
 added-field ion interaction          0.000013 eV  (added to PSCEN)


 Free energy of the ion-electron system (eV)
  ---------------------------------------------------
  alpha Z        PSCENC =         0.34437096
  Ewald energy   TEWEN  =       215.76430794
  -Hartree energ DENC   =     -2202.92333005
  -exchange      EXHF   =         0.00000000
  -V(xc)+E(xc)   XCENC  =       -27.48344502
  PAW double counting   =      2080.11148957    -1983.89152768
  entropy T*S    EENTRO =        -0.00000000
  eigenvalues    EBANDS =      -160.35168763
  atomic energy  EATOM  =      2083.24164537
  ---------------------------------------------------
  free energy    TOTEN  =         4.81182346 eV

  energy without entropy =        4.81182346  energy(sigma->0) =        4.81182346


--------------------------------------------------------------------------------------------------------




--------------------------------------- Iteration      1(  10)  ---------------------------------------


    POTLOK:  cpu time      1.7095: real time      1.7102
    SETDIJ:  cpu time      0.1045: real time      0.1045
    TRIAL :  cpu time      0.2380: real time      0.2380
    CORREC:  cpu time      2.4783: real time      2.4787
    CHARGE:  cpu time      0.6011: real time      0.6011
    --------------------------------------------
      LOOP:  cpu time      5.1488: real time      5.1503

 eigenvalue-minimisations  :     0
 total energy-change (2. order) :-0.2706215E-02  (-0.4789633E-03)
 number of electron      21.9999998 magnetization 
 augmentation part       10.6855693 magnetization 

 DIPCOR: dipole corrections for dipol
 direction  3 min pos     1,
 dipolmoment           0.000000      0.000000     -0.000002 electrons x Angstroem
 Tr[quadrupol]     -3640.374745

 energy correction for charged system         0.000000 eV
 dipol+quadrupol energy correction           -0.000000 eV
 added-field ion interaction          0.000002 eV  (added to PSCEN)


 Free energy of the ion-electron system (eV)
  ---------------------------------------------------
  alpha Z        PSCENC =         0.34431054
  Ewald energy   TEWEN  =       215.76430794
  -Hartree energ DENC   =     -2203.51140104
  -exchange      EXHF   =         0.00000000
  -V(xc)+E(xc)   XCENC  =       -27.46473145
  PAW double counting   =      2081.10322173    -1984.86667697
  entropy T*S    EENTRO =        -0.00000000
  eigenvalues    EBANDS =      -159.80155888
  atomic energy  EATOM  =      2083.24164537
  ---------------------------------------------------
  free energy    TOTEN  =         4.80911724 eV

  energy without entropy =        4.80911724  energy(sigma->0) =        4.80911724


--------------------------------------------------------------------------------------------------------




--------------------------------------- Iteration      1(  11)  ---------------------------------------


    POTLOK:  cpu time      1.7069: real time      1.7073
    SETDIJ:  cpu time      0.1040: real time      0.1040
    TRIAL :  cpu time      0.2377: real time      0.2377
    CORREC:  cpu time      2.4808: real time      2.4814
    CHARGE:  cpu time      0.5994: real time      0.5994
    --------------------------------------------
      LOOP:  cpu time      5.1345: real time      5.1424

 eigenvalue-minimisations  :     0
 total energy-change (2. order) :-0.4793121E-03  (-0.7010503E-04)
 number of electron      21.9999998 magnetization 
 augmentation part       10.6848967 magnetization 

 DIPCOR: dipole corrections for dipol
 direction  3 min pos     1,
 dipolmoment           0.000000      0.000000     -0.000002 electrons x Angstroem
 Tr[quadrupol]     -3640.373507

 energy correction for charged system         0.000000 eV
 dipol+quadrupol energy correction           -0.000000 eV
 added-field ion interaction          0.000002 eV  (added to PSCEN)


 Free energy of the ion-electron system (eV)
  ---------------------------------------------------
  alpha Z        PSCENC =         0.34431069
  Ewald energy   TEWEN  =       215.76430794
  -Hartree energ DENC   =     -2203.40944746
  -exchange      EXHF   =         0.00000000
  -V(xc)+E(xc)   XCENC  =       -27.46794992
  PAW double counting   =      2080.75574770    -1984.51124306
  entropy T*S    EENTRO =        -0.00000000
  eigenvalues    EBANDS =      -159.90873334
  atomic energy  EATOM  =      2083.24164537
  ---------------------------------------------------
  free energy    TOTEN  =         4.80863793 eV

  energy without entropy =        4.80863793  energy(sigma->0) =        4.80863793


--------------------------------------------------------------------------------------------------------




--------------------------------------- Iteration      1(  12)  ---------------------------------------


    POTLOK:  cpu time      1.7040: real time      1.7051
    SETDIJ:  cpu time      0.1011: real time      0.1011
    TRIAL :  cpu time      0.2382: real time      0.2383
    CORREC:  cpu time      2.4838: real time      2.4841
    CHARGE:  cpu time      0.6051: real time      0.6052
    --------------------------------------------
      LOOP:  cpu time      5.1373: real time      5.1478

 eigenvalue-minimisations  :     0
 total energy-change (2. order) :-0.7082229E-04  (-0.1104950E-04)
 number of electron      21.9999998 magnetization 
 augmentation part       10.6857046 magnetization 

 DIPCOR: dipole corrections for dipol
 direction  3 min pos     1,
 dipolmoment           0.000000      0.000000     -0.000002 electrons x Angstroem
 Tr[quadrupol]     -3640.373996

 energy correction for charged system         0.000000 eV
 dipol+quadrupol energy correction           -0.000000 eV
 added-field ion interaction          0.000002 eV  (added to PSCEN)


 Free energy of the ion-electron system (eV)
  ---------------------------------------------------
  alpha Z        PSCENC =         0.34430960
  Ewald energy   TEWEN  =       215.76430794
  -Hartree energ DENC   =     -2203.29906911
  -exchange      EXHF   =         0.00000000
  -V(xc)+E(xc)   XCENC  =       -27.47140803
  PAW double counting   =      2080.43153889    -1984.18505796
  entropy T*S    EENTRO =        -0.00000000
  eigenvalues    EBANDS =      -160.01769958
  atomic energy  EATOM  =      2083.24164537
  ---------------------------------------------------
  free energy    TOTEN  =         4.80856711 eV

  energy without entropy =        4.80856711  energy(sigma->0) =        4.80856711


--------------------------------------------------------------------------------------------------------




--------------------------------------- Iteration      1(  13)  ---------------------------------------


    POTLOK:  cpu time      1.7055: real time      1.7057
    SETDIJ:  cpu time      0.0994: real time      0.0994
    TRIAL :  cpu time      0.2371: real time      0.2372
    CORREC:  cpu time      2.4817: real time      2.4820
    CHARGE:  cpu time      0.5976: real time      0.5980
    --------------------------------------------
      LOOP:  cpu time      5.1263: real time      5.1353

 eigenvalue-minimisations  :     0
 total energy-change (2. order) :-0.1050691E-04  (-0.2197041E-05)
 number of electron      21.9999998 magnetization 
 augmentation part       10.6853953 magnetization 

 DIPCOR: dipole corrections for dipol
 direction  3 min pos     1,
 dipolmoment           0.000000      0.000000     -0.000002 electrons x Angstroem
 Tr[quadrupol]     -3640.373956

 energy correction for charged system         0.000000 eV
 dipol+quadrupol energy correction           -0.000000 eV
 added-field ion interaction          0.000002 eV  (added to PSCEN)


 Free energy of the ion-electron system (eV)
  ---------------------------------------------------
  alpha Z        PSCENC =         0.34430936
  Ewald energy   TEWEN  =       215.76430794
  -Hartree energ DENC   =     -2203.43139157
  -exchange      EXHF   =         0.00000000
  -V(xc)+E(xc)   XCENC  =       -27.46752138
  PAW double counting   =      2080.50503267    -1984.26050976
  entropy T*S    EENTRO =        -0.00000000
  eigenvalues    EBANDS =      -159.88731604
  atomic energy  EATOM  =      2083.24164537
  ---------------------------------------------------
  free energy    TOTEN  =         4.80855660 eV

  energy without entropy =        4.80855660  energy(sigma->0) =        4.80855660


--------------------------------------------------------------------------------------------------------




--------------------------------------- Iteration      1(  14)  ---------------------------------------


    POTLOK:  cpu time      1.7106: real time      1.7108
    SETDIJ:  cpu time      0.0948: real time      0.0950
    TRIAL :  cpu time      0.2381: real time      0.2381
    CORREC:  cpu time      2.4780: real time      2.4784
    CHARGE:  cpu time      0.5999: real time      0.6001
    --------------------------------------------
      LOOP:  cpu time      5.1347: real time      5.1359

 eigenvalue-minimisations  :     0
 total energy-change (2. order) :-0.2120057E-05  (-0.3973491E-06)
 number of electron      21.9999998 magnetization 
 augmentation part       10.6852745 magnetization 

 DIPCOR: dipole corrections for dipol
 direction  3 min pos     1,
 dipolmoment           0.000000      0.000000     -0.000002 electrons x Angstroem
 Tr[quadrupol]     -3640.373833

 energy correction for charged system         0.000000 eV
 dipol+quadrupol energy correction           -0.000000 eV
 added-field ion interaction          0.000002 eV  (added to PSCEN)


 Free energy of the ion-electron system (eV)
  ---------------------------------------------------
  alpha Z        PSCENC =         0.34430937
  Ewald energy   TEWEN  =       215.76430794
  -Hartree energ DENC   =     -2203.38437650
  -exchange      EXHF   =         0.00000000
  -V(xc)+E(xc)   XCENC  =       -27.46894396
  PAW double counting   =      2080.43356339    -1984.18823303
  entropy T*S    EENTRO =        -0.00000000
  eigenvalues    EBANDS =      -159.93371809
  atomic energy  EATOM  =      2083.24164537
  ---------------------------------------------------
  free energy    TOTEN  =         4.80855448 eV

  energy without entropy =        4.80855448  energy(sigma->0) =        4.80855448


--------------------------------------------------------------------------------------------------------




--------------------------------------- Iteration      1(  15)  ---------------------------------------


    POTLOK:  cpu time      1.7042: real time      1.7045
    SETDIJ:  cpu time      0.1014: real time      0.1014
    TRIAL :  cpu time      0.2381: real time      0.2381
    CORREC:  cpu time      2.4762: real time      2.4765
    EDDIAG:  cpu time      0.0975: real time      0.0996
    CHARGE:  cpu time      0.5929: real time      0.5980
    --------------------------------------------
      LOOP:  cpu time      5.2156: real time      5.2315

 eigenvalue-minimisations  :     0
 total energy-change (2. order) :-0.3363530E-06  (-0.3174444E-06)
 number of electron      21.9999998 magnetization 
 augmentation part       10.6852698 magnetization 

 DIPCOR: dipole corrections for dipol
 direction  3 min pos     1,
 dipolmoment           0.000000      0.000000     -0.000002 electrons x Angstroem
 Tr[quadrupol]     -3640.373938

 energy correction for charged system         0.000000 eV
 dipol+quadrupol energy correction           -0.000000 eV
 added-field ion interaction          0.000002 eV  (added to PSCEN)


 Free energy of the ion-electron system (eV)
  ---------------------------------------------------
  alpha Z        PSCENC =         0.34430936
  Ewald energy   TEWEN  =       215.76430794
  -Hartree energ DENC   =     -2203.36665565
  -exchange      EXHF   =         0.00000000
  -V(xc)+E(xc)   XCENC  =       -27.46948253
  PAW double counting   =      2080.41000784    -1984.16435185
  entropy T*S    EENTRO =        -0.00000000
  eigenvalues    EBANDS =      -159.95122632
  atomic energy  EATOM  =      2083.24164537
  ---------------------------------------------------
  free energy    TOTEN  =         4.80855415 eV

  energy without entropy =        4.80855415  energy(sigma->0) =        4.80855415


--------------------------------------------------------------------------------------------------------


  average scaling for gradient   1.4536


 average (electrostatic) potential at core
  the test charge radii are     1.1249
  (the norm of the test charge is              1.0000)
       1 -82.4294       2 -82.4294



 E-fermi :  -5.0545     XC(G=0):  -0.2146     alpha+bet : -0.0465

 Fermi energy:        -5.0545298808

 k-point     1 :       0.0000    0.0000    0.0000
  band No.  band energies     occupation 
      1      -8.4215      2.00000
      2      -7.9404      2.00000
      3      -7.9403      2.00000
      4      -7.4550      2.00000
      5      -7.4550      2.00000
      6      -7.2732      2.00000
      7      -7.2732      2.00000
      8      -7.0257      2.00000
      9      -7.0257      2.00000
     10      -6.8768      2.00000
     11      -5.2878      2.00000
     12      -3.3580      0.00000
     13      -1.3603      0.00000
     14      -1.3601      0.00000
     15      -0.9479      0.00000
     16      -0.0675      0.00000
     17      -0.0366      0.00000
     18      -0.0220      0.00000
     19       0.1506      0.00000
     20       0.1918      0.00000
     21       0.2910      0.00000
     22       0.3005      0.00000
     23       0.3369      0.00000
     24       0.4091      0.00000
     25       0.4726      0.00000
     26       0.5229      0.00000
     27       0.5330      0.00000
     28       0.5924      0.00000
     29       0.6310      0.00000
     30       0.6346      0.00000
     31       0.6354      0.00000
     32       0.6454      0.00000
     33       0.6620      0.00000
     34       0.6917      0.00000
     35       0.6990      0.00000
     36       0.7164      0.00000
     37       0.8437      0.00000
     38       0.8839      0.00000
     39       0.9047      0.00000
     40       0.9345      0.00000
     41       0.9539      0.00000
     42       0.9545      0.00000
     43       0.9721      0.00000
     44       1.0542      0.00000
     45       1.0644      0.00000
     46       1.1852      0.00000
     47       1.2048      0.00000
     48       1.2384      0.00000
     49       1.2685      0.00000
     50       1.2905      0.00000
     51       1.3081      0.00000
     52       1.3913      0.00000
     53       1.3992      0.00000
     54       1.4025      0.00000
     55       1.4640      0.00000
     56       1.4991      0.00000
     57       1.5108      0.00000
     58       1.5196      0.00000
     59       1.5559      0.00000
     60       1.5640      0.00000
     61       1.5899      0.00000
     62       1.5977      0.00000
     63       1.6048      0.00000
     64       1.6238      0.00000


--------------------------------------------------------------------------------------------------------


 soft charge-density along one line, spin component           1
         0         1         2         3         4         5         6         7         8         9
 total charge-density along one line

 pseudopotential strength for first ion, spin component:           1
-10.380   0.000  -0.020  -0.000  -0.000 -10.353   0.000  -0.020
  0.000 -10.359  -0.000   0.015  -0.000   0.000 -10.332  -0.000
 -0.020  -0.000 -10.357   0.000   0.000  -0.020  -0.000 -10.330
 -0.000   0.015   0.000 -10.359  -0.000  -0.000   0.014   0.000
 -0.000  -0.000   0.000  -0.000 -10.374  -0.000  -0.000   0.000
-10.353   0.000  -0.020  -0.000  -0.000 -10.301   0.000  -0.019
  0.000 -10.332  -0.000   0.014  -0.000   0.000 -10.282  -0.000
 -0.020  -0.000 -10.330   0.000   0.000  -0.019  -0.000 -10.279
 -0.000   0.014   0.000 -10.332  -0.000  -0.000   0.013   0.000
 -0.000  -0.000   0.000  -0.000 -10.346  -0.000  -0.000   0.000
 -0.010   0.000  -0.006  -0.000   0.000  -0.010   0.000  -0.006
 -0.017   0.000  -0.010  -0.000   0.000  -0.017   0.000  -0.010
  0.025  -0.000   0.014  -0.000   0.027   0.024  -0.000   0.014
 -0.000  -0.027   0.000   0.027   0.000  -0.000  -0.026   0.000
 -0.025  -0.000  -0.014  -0.000   0.027  -0.024  -0.000  -0.014
  0.030  -0.000   0.017  -0.000   0.032   0.029  -0.000   0.017
 -0.000  -0.032   0.000   0.032   0.000  -0.000  -0.031   0.000
 -0.030  -0.000  -0.017  -0.000   0.032  -0.029  -0.000  -0.017
 total augmentation occupancy for first ion, spin component:           1
  2.513   0.000   0.187   0.000  -0.000  -0.561   0.000  -0.265   0.000   0.000   0.790  -0.100   0.081   0.000  -0.081   0.008
  0.000   2.243   0.000  -0.054   0.000   0.000  -0.188   0.000   0.086   0.000   0.000   0.000   0.000  -0.009   0.000   0.000
  0.187   0.000   2.297   0.000  -0.000  -0.265   0.000  -0.255   0.000   0.000   0.456  -0.058   0.047   0.000  -0.047   0.005
  0.000  -0.054   0.000   2.243   0.000   0.000   0.086   0.000  -0.188   0.000   0.000   0.000   0.000   0.009   0.000   0.000
 -0.000   0.000  -0.000   0.000   2.298   0.000   0.000   0.000   0.000  -0.274  -0.000   0.000   0.009   0.000   0.009   0.016
 -0.561   0.000  -0.265   0.000   0.000   0.592   0.000   0.334   0.000  -0.000  -0.660   0.074  -0.110   0.000   0.110   0.009
  0.000  -0.188   0.000   0.086   0.000   0.000   0.128   0.000  -0.114   0.000   0.000   0.000   0.000   0.025   0.000   0.000
 -0.265   0.000  -0.255   0.000   0.000   0.334   0.000   0.206   0.000  -0.000  -0.381   0.043  -0.063   0.000   0.063   0.005
  0.000   0.086   0.000  -0.188   0.000   0.000  -0.114   0.000   0.128   0.000   0.000   0.000   0.000  -0.025   0.000   0.000
  0.000   0.000   0.000   0.000  -0.274  -0.000   0.000  -0.000   0.000   0.242   0.000  -0.000  -0.025   0.000  -0.025   0.001
  0.790   0.000   0.456   0.000  -0.000  -0.660   0.000  -0.381   0.000   0.000   1.433  -0.097   0.149   0.000  -0.149  -0.010
 -0.100   0.000  -0.058   0.000   0.000   0.074   0.000   0.043   0.000  -0.000  -0.097   0.010  -0.014   0.000   0.014   0.001
  0.081   0.000   0.047   0.000   0.009  -0.110   0.000  -0.063   0.000  -0.025   0.149  -0.014   0.025   0.000  -0.019  -0.002
  0.000  -0.009   0.000   0.009   0.000   0.000   0.025   0.000  -0.025   0.000   0.000   0.000   0.000   0.006   0.000   0.000
 -0.081   0.000  -0.047   0.000   0.009   0.110   0.000   0.063   0.000  -0.025  -0.149   0.014  -0.019   0.000   0.025   0.002
  0.008   0.000   0.005   0.000   0.016   0.009   0.000   0.005   0.000   0.001  -0.010   0.001  -0.002   0.000   0.002   0.000
  0.000  -0.016   0.000   0.016  -0.000   0.000  -0.001   0.000   0.001   0.000   0.000   0.000   0.000  -0.001   0.000   0.000
 -0.008   0.000  -0.005   0.000   0.016  -0.009   0.000  -0.005   0.000   0.001   0.010  -0.001   0.002   0.000  -0.002  -0.000


------------------------ aborting loop because EDIFF is reached ----------------------------------------


    FORLOC:  cpu time      0.0022: real time      0.0022
    FORNL :  cpu time      0.1185: real time      0.1187
    STRESS:  cpu time      0.3571: real time      0.3574
    FORCOR:  cpu time      1.6465: real time      1.6466
    OFIELD:  cpu time      0.0007: real time      0.0007

  FORCE on cell =-STRESS in cart. coord.  units (eV):
  Direction    XX          YY          ZZ          XY          YZ          ZX
  --------------------------------------------------------------------------------------
  Alpha Z     0.34431     0.34431     0.34431
  Ewald     192.18884   192.18884  -168.61343  -332.86766     0.00000    -0.00000
  Hartree   824.54127   824.54127   554.28631  -242.82110     0.00000    -0.00000
  E(xc)    -117.72010  -117.72010  -118.12849    -0.40834     0.00000    -0.00000
  Local   -1331.41599 -1331.41599  -705.52423   570.52428    -0.00000     0.00000
  n-local   -26.87509   -26.87509   -25.27799     1.59818    -0.00000    -0.00000
  augment   184.70861   184.70861   185.66141     0.95076     0.00000     0.00000
  Kinetic   274.40663   274.40663   277.22686     2.81956     0.00000     0.00000
  Fock        0.00000     0.00000     0.00000     0.00000     0.00000     0.00000
  -------------------------------------------------------------------------------------
  Total       0.17847     0.17847    -0.02526    -0.20433     0.00000     0.00000
  in kB       0.02894     0.02894    -0.00409    -0.03313     0.00000     0.00000
  external pressure =        0.02 kB  Pullay stress =        0.00 kB


 VOLUME and BASIS-vectors are now :
 -----------------------------------------------------------------------------
  energy-cutoff  :      520.00
  volume of cell :     9881.61
      direct lattice vectors                 reciprocal lattice vectors
    21.138852197  0.000000000  0.000000000     0.047306258  0.000000000  0.000000000
     0.000000000 21.138852197  0.000000000     0.000000000  0.047306258  0.000000000
     0.000000000  0.000000000 22.113885220     0.000000000  0.000000000  0.045220457

  length of vectors
    21.138852197 21.138852197 22.113885220     0.047306258  0.047306258  0.045220457


 FORCES acting on ions:
    Electron-Ion                     Ewald-Force                    Non-Local-Force
 -----------------------------------------------------------------------------------------------
   -.187E+03 0.187E+03 0.134E-04   0.183E+03 -.183E+03 0.130E-16   0.486E+01 -.486E+01 0.411E-22
   0.187E+03 -.187E+03 0.134E-04   -.183E+03 0.183E+03 -.354E-16   -.486E+01 0.486E+01 -.525E-20
 -----------------------------------------------------------------------------------------------
   0.714E-06 0.630E-07 0.127E-04   0.000E+00 0.000E+00 -.224E-16   0.000E+00 -.888E-15 -.521E-20


 POSITION                                       TOTAL-FORCE (eV/Angst)
 -----------------------------------------------------------------------------------
     11.48398     11.76876     13.78517         0.108428     -0.108428      0.000000
      9.65487     13.59787     13.78517        -0.108428      0.108428     -0.000000
 -----------------------------------------------------------------------------------
    total drift:                                0.000001      0.000000      0.000013


--------------------------------------------------------------------------------------------------------



  FREE ENERGIE OF THE ION-ELECTRON SYSTEM (eV)
  ---------------------------------------------------
  free  energy   TOTEN  =         4.80855415 eV

  energy  without entropy=        4.80855415  energy(sigma->0) =        4.80855415



--------------------------------------------------------------------------------------------------------


    POTLOK:  cpu time      1.8136: real time      1.8142


--------------------------------------------------------------------------------------------------------


     LOOP+:  cpu time     61.9650: real time     62.0984
    4ORBIT:  cpu time      0.0000: real time      0.0000

 total amount of memory used by VASP MPI-rank0   125749. kBytes
=======================================================================

   base      :      30000. kBytes
   nonlr-proj:        645. kBytes
   fftplans  :      38424. kBytes
   grid      :      53473. kBytes
   one-center:         15. kBytes
   wavefun   :       3192. kBytes

  
  
 General timing and accounting informations for this job:
 ========================================================
  
                  Total CPU time used (sec):       76.681
                            User time (sec):       74.269
                          System time (sec):        2.412
                         Elapsed time (sec):       81.609
  
                   Maximum memory used (kb):      479416.
                   Average memory used (kb):          N/A
  
                          Minor page faults:        84345
                          Major page faults:            0
                 Voluntary context switches:         6642
