 **********************************************************************
                          MRCC program system
 **********************************************************************
 
                              Written by
     Mihaly Kallay, Peter R. Nagy, David Mester, Laszlo Gyevi-Nagy,
        Jozsef Csoka, P. Bernat Szabo, Zoltan Rolik, Gyula Samu,
     Jozsef Csontos, Bence Hegely, Adam Ganyecz, Istvan Ladjanszki,
       Lorant Szegedy, Bence Ladoczki, Klara Petrov, Mate Farkas,
                    Pal D. Mezei, and Reka A. Horvath
 
        Department of Physical Chemistry and Materials Science
            Budapest University of Technology and Economics
                  Budapest P.O.Box 91, H-1521 Hungary
 
                              www.mrcc.hu
 
                      Release date: March 18, 2022

 ************************ 2023-02-15 05:54:04 *************************
 Executing minp...

 Reading input from MINP...
 
 Input file:
 
calc=LB2PLYP
verbosity=3
mem=220GB
symm=off
unit=angs
scfiguess=small
scfalg=locfit1
lcorthr=tight
bpedo=0.99999
ECP=MCDHF-ECP-10
basis=bse_ACVTZ
basis_sm=def2-SVP
dfbasis_scf=def2-QZVPP-RI-JK
dfbasis_cor=bse_ACVTZ_mp2fit
core=0
unit=angs
geom=xyz
6
Cu6_4
Cu    -0.72254019    -2.74139395     0.78079631
Cu     0.53637637     0.48682571    -0.90726631
Cu    -0.53683073    -0.48677375     0.90871027
Cu     0.38080789    -1.79896385    -1.09546754
Cu     0.72271102     2.74127763    -0.78181119
Cu    -0.38052436     1.79902820     1.09503846

ghost=serialno


 
 
 Checking keyword combinations...
 
 Keywords:
 
 active=none
 agrid=ld0006-ld0590
 agrid_pssp=ld0006-ld0194
 agrid_pssp_sm=ld0006-ld0074
 basis=bse_acvtz
 basis_sm=def2-svp
 basopt=off
 bfbasis=none
 bfgsmem=10
 bfgstol=1.0d-3
 bpcompo=0.985
 bpcompv=0.98
 bpdfo=0.985
 bpocc=0.99999
 bppdo=0.999d0
 bppdv=0.98
 bpedo=0.99999
 bpedv=0.995d0
 calc=mp2
 ccmaxit=50
 ccprog=mrcc
 ccsdalg=disk
 ccsdmkl=seq
 ccsdrest=off
 ccsdthreads=2
 cctol=5
 charge=0
 cialg=direct
 ciguess=off
 cmpgrp=auto
 comprest=off
 core=corr
 corembed=off
 csapprox=off
 cvs=off
 dboc=off
 delocsomofact=
 dendec=cholesky
 dens=0
 dfalg=lineq
 dfbasis_cab=none
 dfbasis_cor=bse_acvtz_mp2fit
 dfbasis_scf=def2-qzvpp-ri-jk
 dfbasis_scf_sm=def2-qzvpp-ri-jk
 dfintran=drpa
 dft=b2plyp
 dhexc=adc(2)
 diag=david
 docc=
 domrad=10.d0
 drpaalg=auto
 dual=off
 dual_df=off
 ecp=mcdhf-ecp-10
 edisp=off
 edisp_embed=off
 embed=off
 etemp=300
 epert=none
 eps=
 espcharge=off
 excrad=1.0
 excrad_fin=0.100000000D-02
 fitting=coulomb
 fmm=off
 fmmord=8
 freq=off
 gamma=1.d0
 gauss=spher
 geom=xyz
 gopt=off
 ghost=serialno
 gtol=7
 grdens=off
 gridbatch_cos=2000
 grtol=10
 guido_ct=off
 hamilton=dc
 iface=none
 intalg=auto
 itol=10
 laptol=1.d-3
 lccoporder=trffirst
 lcorthr=tight
 lccrest=off
 lmp2dens=on
 lnoepso=0.d0
 lnoepsv=1e-6
 boysalg=jacobi
 localcc=2021
 localcorrsymm=off
 locintrf=directai
 mact=
 maxact=off
 maxdim=100
 maxex=0
 maxmicroit=100
 mcscfiguess=hf
 mem=220gb
 mmprog=
 molden=on
 mpitasks=1
 mulmet=3
 mult=
 nacto=0
 nactv=0
 naf_amp=1.d-2
 naf_cor=off
 naf_scf=off
 nafalg=albe
 naftyp=
 nchol=auto
 ndeps=1e-3
 nstate=1
 nsing=0
 nto=off
 ntrip=0
 occ=
 occri=off
 oniom=off
 oniom_eechg=off
 oniom_pcm=off
 oniom_qcorr=off
 optalg=
 optmaxit=50
 optetol=1e-6
 optex=0
 optgtol=1e-4
 optstol=1e-3
 orblocc=boys
 orbloce=off
 orbloco=boys
 orblocv=pao
 orblocguess=cholesky
 osveps=-1.d0
 ovirt=off
 ovltol=1e-7
 ovosnorb=80.0
 pcm=off
 popul=off
 pressure=100000
 pssp=off
 ptfreq=0.0
 ptthreads=2
 qro=off
 qscf=off
 qmmm=off
 redcost_exc=off
 redcost_tddft=0.985d0
 refdet=none
 rest=0
 rgrid=log3
 rism=off
 rohfcore=standard
 rohftype=semicanonical
 scfalg=locfit1
 scf_conv=difficult
 scfdamp=0.7d0
 scfdamp_mode=1
 scfdamp_end=3
 scfdamp_dampstep=0.d0
 scfdamp_dtol=0.0d0
 scfdamp_maxfact=0.7d0
 scfdamp_minfact=0.7d0
 scfdiis=on
 scfdiis_dtol=0.0d0
 scfdiis_end=50
 scfdiis_start=2
 scfdiis_step=1
 scfdiis_watch=off
 scfdiis_wrange=10
 scfdiis_wlimit=5
 scfdiis_delmax=2
 scfdtol=7
 scfext=10
 scfguessdens=
 scfiguess=small
 scfloc=pm
 scflshift=0.20
 scflshift_end=8
 scflshift_dtol=0.0
 scflshift_gaptol=0.20
 scfmaxit=50
 scftype=
 scftol=6
 scspe=1.d0
 scsph=1.d0
 scsps=1.2d0
 scsps_t=1.2d0
 scspt=0.33333333333333
 scspt_t=0.33333333333333
 scspv=1.d0
 spairtol=-1.d0
 sqmprog=
 subminp=top
 symm=0
 talg=lapl
 temp=298.15
 test=off
 theodore=off
 tlmo=0.999
 tpao=0.94
 tprint=off
 uncontract=off
 unit=angs
 usedisk=2
 verbosity=3
 wpairtol=3.d-6
 
 Calculating integrals for small-basis SCF...

 ************************ 2023-02-15 05:54:05 *************************
 Executing integ...

 Allocation of 220.0 Gbytes of memory...
 
 
 Number of atoms:                  6
 Charge:                           0
 Number of electrons:            114
 Number of core electrons:        48
 Spin multiplicity:                1
 
                 Cartesian coordinates [bohr]      Atomic mass [AMU]  Z
   1  Cu   -1.36540307   -5.18048377    1.47549119    62.929599      29
   2  Cu    1.01360444    0.91996726   -1.71448485    62.929599      29
   3  Cu   -1.01446306   -0.91986907    1.71721354    62.929599      29
   4  Cu    0.71962262   -3.39954899   -2.07013363    62.929599      29
   5  Cu    1.36572590    5.18026395   -1.47740903    62.929599      29
   6  Cu   -0.71908682    3.39967059    2.06932279    62.929599      29
 
 This molecule is an asymmetric top.
 
 Point group: C1  
 Computational point group: C1  
 
 Cartesian coordinates in standard orientation [bohr]
   1  Cu    5.45122382   -1.07841097   -0.00067830
   2  Cu   -1.23327122    1.81445139   -0.00052449
   3  Cu    1.23357774   -1.81725112    0.00103457
   4  Cu    3.02198866    2.68846194    0.00041308
   5  Cu   -5.45124583    1.08027691    0.00008802
   6  Cu   -3.02227317   -2.68752816   -0.00033287
 
 Nuclear repulsion energy [au]:        987.050078873123
 
 
 Basis set information:
 
 Maximum angular momentum: i
 Maximum number of contracted Gaussians:   16
 Maximum number of primitive Gaussians:    19
 Spherical harmonic GTOs are used.
 
 
 Conventional basis set:
 
   1  Cu def2-svp [ 14s 9p 5d 1f | 5s 3p 2d 1f ]
   2  Cu def2-svp [ 14s 9p 5d 1f | 5s 3p 2d 1f ]
   3  Cu def2-svp [ 14s 9p 5d 1f | 5s 3p 2d 1f ]
   4  Cu def2-svp [ 14s 9p 5d 1f | 5s 3p 2d 1f ]
   5  Cu def2-svp [ 14s 9p 5d 1f | 5s 3p 2d 1f ]
   6  Cu def2-svp [ 14s 9p 5d 1f | 5s 3p 2d 1f ]
 
 Basis functions:
            1             2             3             4             5             6             7             8             9            10
    0    1Cu1s         1Cu2s         1Cu3s         1Cu4s         1Cu5s         1Cu1pz        1Cu1py        1Cu1px        1Cu2pz        1Cu2py    
    1    1Cu2px        1Cu3pz        1Cu3py        1Cu3px        1Cu1d-2       1Cu1d-1       1Cu1d0        1Cu1d+1       1Cu1d+2       1Cu2d-2   
    2    1Cu2d-1       1Cu2d0        1Cu2d+1       1Cu2d+2       1Cu1f-3       1Cu1f-2       1Cu1f-1       1Cu1f0        1Cu1f+1       1Cu1f+2   
    3    1Cu1f+3       2Cu1s         2Cu2s         2Cu3s         2Cu4s         2Cu5s         2Cu1pz        2Cu1py        2Cu1px        2Cu2pz    
    4    2Cu2py        2Cu2px        2Cu3pz        2Cu3py        2Cu3px        2Cu1d-2       2Cu1d-1       2Cu1d0        2Cu1d+1       2Cu1d+2   
    5    2Cu2d-2       2Cu2d-1       2Cu2d0        2Cu2d+1       2Cu2d+2       2Cu1f-3       2Cu1f-2       2Cu1f-1       2Cu1f0        2Cu1f+1   
    6    2Cu1f+2       2Cu1f+3       3Cu1s         3Cu2s         3Cu3s         3Cu4s         3Cu5s         3Cu1pz        3Cu1py        3Cu1px    
    7    3Cu2pz        3Cu2py        3Cu2px        3Cu3pz        3Cu3py        3Cu3px        3Cu1d-2       3Cu1d-1       3Cu1d0        3Cu1d+1   
    8    3Cu1d+2       3Cu2d-2       3Cu2d-1       3Cu2d0        3Cu2d+1       3Cu2d+2       3Cu1f-3       3Cu1f-2       3Cu1f-1       3Cu1f0    
    9    3Cu1f+1       3Cu1f+2       3Cu1f+3       4Cu1s         4Cu2s         4Cu3s         4Cu4s         4Cu5s         4Cu1pz        4Cu1py    
   10    4Cu1px        4Cu2pz        4Cu2py        4Cu2px        4Cu3pz        4Cu3py        4Cu3px        4Cu1d-2       4Cu1d-1       4Cu1d0    
   11    4Cu1d+1       4Cu1d+2       4Cu2d-2       4Cu2d-1       4Cu2d0        4Cu2d+1       4Cu2d+2       4Cu1f-3       4Cu1f-2       4Cu1f-1   
   12    4Cu1f0        4Cu1f+1       4Cu1f+2       4Cu1f+3       5Cu1s         5Cu2s         5Cu3s         5Cu4s         5Cu5s         5Cu1pz    
   13    5Cu1py        5Cu1px        5Cu2pz        5Cu2py        5Cu2px        5Cu3pz        5Cu3py        5Cu3px        5Cu1d-2       5Cu1d-1   
   14    5Cu1d0        5Cu1d+1       5Cu1d+2       5Cu2d-2       5Cu2d-1       5Cu2d0        5Cu2d+1       5Cu2d+2       5Cu1f-3       5Cu1f-2   
   15    5Cu1f-1       5Cu1f0        5Cu1f+1       5Cu1f+2       5Cu1f+3       6Cu1s         6Cu2s         6Cu3s         6Cu4s         6Cu5s     
   16    6Cu1pz        6Cu1py        6Cu1px        6Cu2pz        6Cu2py        6Cu2px        6Cu3pz        6Cu3py        6Cu3px        6Cu1d-2   
   17    6Cu1d-1       6Cu1d0        6Cu1d+1       6Cu1d+2       6Cu2d-2       6Cu2d-1       6Cu2d0        6Cu2d+1       6Cu2d+2       6Cu1f-3   
   18    6Cu1f-2       6Cu1f-1       6Cu1f0        6Cu1f+1       6Cu1f+2       6Cu1f+3   
 
 Maximum number of basis functions per shell:   10
 Total number of basis functions:    186
 
 
 Fitting basis set for the SCF calculation:
 
   1  Cu def2-qzvpp-ri-jk [ 19s 14p 12d 10f 7g 3h 1i | 16s 13p 11d 9f 5g 3h 1i ]
   2  Cu def2-qzvpp-ri-jk [ 19s 14p 12d 10f 7g 3h 1i | 16s 13p 11d 9f 5g 3h 1i ]
   3  Cu def2-qzvpp-ri-jk [ 19s 14p 12d 10f 7g 3h 1i | 16s 13p 11d 9f 5g 3h 1i ]
   4  Cu def2-qzvpp-ri-jk [ 19s 14p 12d 10f 7g 3h 1i | 16s 13p 11d 9f 5g 3h 1i ]
   5  Cu def2-qzvpp-ri-jk [ 19s 14p 12d 10f 7g 3h 1i | 16s 13p 11d 9f 5g 3h 1i ]
   6  Cu def2-qzvpp-ri-jk [ 19s 14p 12d 10f 7g 3h 1i | 16s 13p 11d 9f 5g 3h 1i ]
 
 Basis functions:
            1             2             3             4             5             6             7             8             9            10
    0    1Cu1s         1Cu2s         1Cu3s         1Cu4s         1Cu5s         1Cu6s         1Cu7s         1Cu8s         1Cu9s         1Cu10s    
    1    1Cu11s        1Cu12s        1Cu13s        1Cu14s        1Cu15s        1Cu16s        1Cu1pz        1Cu1py        1Cu1px        1Cu2pz    
    2    1Cu2py        1Cu2px        1Cu3pz        1Cu3py        1Cu3px        1Cu4pz        1Cu4py        1Cu4px        1Cu5pz        1Cu5py    
    3    1Cu5px        1Cu6pz        1Cu6py        1Cu6px        1Cu7pz        1Cu7py        1Cu7px        1Cu8pz        1Cu8py        1Cu8px    
    4    1Cu9pz        1Cu9py        1Cu9px        1Cu10pz       1Cu10py       1Cu10px       1Cu11pz       1Cu11py       1Cu11px       1Cu12pz   
    5    1Cu12py       1Cu12px       1Cu13pz       1Cu13py       1Cu13px       1Cu1d-2       1Cu1d-1       1Cu1d0        1Cu1d+1       1Cu1d+2   
    6    1Cu2d-2       1Cu2d-1       1Cu2d0        1Cu2d+1       1Cu2d+2       1Cu3d-2       1Cu3d-1       1Cu3d0        1Cu3d+1       1Cu3d+2   
    7    1Cu4d-2       1Cu4d-1       1Cu4d0        1Cu4d+1       1Cu4d+2       1Cu5d-2       1Cu5d-1       1Cu5d0        1Cu5d+1       1Cu5d+2   
    8    1Cu6d-2       1Cu6d-1       1Cu6d0        1Cu6d+1       1Cu6d+2       1Cu7d-2       1Cu7d-1       1Cu7d0        1Cu7d+1       1Cu7d+2   
    9    1Cu8d-2       1Cu8d-1       1Cu8d0        1Cu8d+1       1Cu8d+2       1Cu9d-2       1Cu9d-1       1Cu9d0        1Cu9d+1       1Cu9d+2   
   10    1Cu10d-2      1Cu10d-1      1Cu10d0       1Cu10d+1      1Cu10d+2      1Cu11d-2      1Cu11d-1      1Cu11d0       1Cu11d+1      1Cu11d+2  
   11    1Cu1f-3       1Cu1f-2       1Cu1f-1       1Cu1f0        1Cu1f+1       1Cu1f+2       1Cu1f+3       1Cu2f-3       1Cu2f-2       1Cu2f-1   
   12    1Cu2f0        1Cu2f+1       1Cu2f+2       1Cu2f+3       1Cu3f-3       1Cu3f-2       1Cu3f-1       1Cu3f0        1Cu3f+1       1Cu3f+2   
   13    1Cu3f+3       1Cu4f-3       1Cu4f-2       1Cu4f-1       1Cu4f0        1Cu4f+1       1Cu4f+2       1Cu4f+3       1Cu5f-3       1Cu5f-2   
   14    1Cu5f-1       1Cu5f0        1Cu5f+1       1Cu5f+2       1Cu5f+3       1Cu6f-3       1Cu6f-2       1Cu6f-1       1Cu6f0        1Cu6f+1   
   15    1Cu6f+2       1Cu6f+3       1Cu7f-3       1Cu7f-2       1Cu7f-1       1Cu7f0        1Cu7f+1       1Cu7f+2       1Cu7f+3       1Cu8f-3   
   16    1Cu8f-2       1Cu8f-1       1Cu8f0        1Cu8f+1       1Cu8f+2       1Cu8f+3       1Cu9f-3       1Cu9f-2       1Cu9f-1       1Cu9f0    
   17    1Cu9f+1       1Cu9f+2       1Cu9f+3       1Cu1g-4       1Cu1g-3       1Cu1g-2       1Cu1g-1       1Cu1g0        1Cu1g+1       1Cu1g+2   
   18    1Cu1g+3       1Cu1g+4       1Cu2g-4       1Cu2g-3       1Cu2g-2       1Cu2g-1       1Cu2g0        1Cu2g+1       1Cu2g+2       1Cu2g+3   
   19    1Cu2g+4       1Cu3g-4       1Cu3g-3       1Cu3g-2       1Cu3g-1       1Cu3g0        1Cu3g+1       1Cu3g+2       1Cu3g+3       1Cu3g+4   
   20    1Cu4g-4       1Cu4g-3       1Cu4g-2       1Cu4g-1       1Cu4g0        1Cu4g+1       1Cu4g+2       1Cu4g+3       1Cu4g+4       1Cu5g-4   
   21    1Cu5g-3       1Cu5g-2       1Cu5g-1       1Cu5g0        1Cu5g+1       1Cu5g+2       1Cu5g+3       1Cu5g+4       1Cu1h-5       1Cu1h-4   
   22    1Cu1h-3       1Cu1h-2       1Cu1h-1       1Cu1h0        1Cu1h+1       1Cu1h+2       1Cu1h+3       1Cu1h+4       1Cu1h+5       1Cu2h-5   
   23    1Cu2h-4       1Cu2h-3       1Cu2h-2       1Cu2h-1       1Cu2h0        1Cu2h+1       1Cu2h+2       1Cu2h+3       1Cu2h+4       1Cu2h+5   
   24    1Cu3h-5       1Cu3h-4       1Cu3h-3       1Cu3h-2       1Cu3h-1       1Cu3h0        1Cu3h+1       1Cu3h+2       1Cu3h+3       1Cu3h+4   
   25    1Cu3h+5       1Cu1i-6       1Cu1i-5       1Cu1i-4       1Cu1i-3       1Cu1i-2       1Cu1i-1       1Cu1i0        1Cu1i+1       1Cu1i+2   
   26    1Cu1i+3       1Cu1i+4       1Cu1i+5       1Cu1i+6       2Cu1s         2Cu2s         2Cu3s         2Cu4s         2Cu5s         2Cu6s     
   27    2Cu7s         2Cu8s         2Cu9s         2Cu10s        2Cu11s        2Cu12s        2Cu13s        2Cu14s        2Cu15s        2Cu16s    
   28    2Cu1pz        2Cu1py        2Cu1px        2Cu2pz        2Cu2py        2Cu2px        2Cu3pz        2Cu3py        2Cu3px        2Cu4pz    
   29    2Cu4py        2Cu4px        2Cu5pz        2Cu5py        2Cu5px        2Cu6pz        2Cu6py        2Cu6px        2Cu7pz        2Cu7py    
   30    2Cu7px        2Cu8pz        2Cu8py        2Cu8px        2Cu9pz        2Cu9py        2Cu9px        2Cu10pz       2Cu10py       2Cu10px   
   31    2Cu11pz       2Cu11py       2Cu11px       2Cu12pz       2Cu12py       2Cu12px       2Cu13pz       2Cu13py       2Cu13px       2Cu1d-2   
   32    2Cu1d-1       2Cu1d0        2Cu1d+1       2Cu1d+2       2Cu2d-2       2Cu2d-1       2Cu2d0        2Cu2d+1       2Cu2d+2       2Cu3d-2   
   33    2Cu3d-1       2Cu3d0        2Cu3d+1       2Cu3d+2       2Cu4d-2       2Cu4d-1       2Cu4d0        2Cu4d+1       2Cu4d+2       2Cu5d-2   
   34    2Cu5d-1       2Cu5d0        2Cu5d+1       2Cu5d+2       2Cu6d-2       2Cu6d-1       2Cu6d0        2Cu6d+1       2Cu6d+2       2Cu7d-2   
   35    2Cu7d-1       2Cu7d0        2Cu7d+1       2Cu7d+2       2Cu8d-2       2Cu8d-1       2Cu8d0        2Cu8d+1       2Cu8d+2       2Cu9d-2   
   36    2Cu9d-1       2Cu9d0        2Cu9d+1       2Cu9d+2       2Cu10d-2      2Cu10d-1      2Cu10d0       2Cu10d+1      2Cu10d+2      2Cu11d-2  
   37    2Cu11d-1      2Cu11d0       2Cu11d+1      2Cu11d+2      2Cu1f-3       2Cu1f-2       2Cu1f-1       2Cu1f0        2Cu1f+1       2Cu1f+2   
   38    2Cu1f+3       2Cu2f-3       2Cu2f-2       2Cu2f-1       2Cu2f0        2Cu2f+1       2Cu2f+2       2Cu2f+3       2Cu3f-3       2Cu3f-2   
   39    2Cu3f-1       2Cu3f0        2Cu3f+1       2Cu3f+2       2Cu3f+3       2Cu4f-3       2Cu4f-2       2Cu4f-1       2Cu4f0        2Cu4f+1   
   40    2Cu4f+2       2Cu4f+3       2Cu5f-3       2Cu5f-2       2Cu5f-1       2Cu5f0        2Cu5f+1       2Cu5f+2       2Cu5f+3       2Cu6f-3   
   41    2Cu6f-2       2Cu6f-1       2Cu6f0        2Cu6f+1       2Cu6f+2       2Cu6f+3       2Cu7f-3       2Cu7f-2       2Cu7f-1       2Cu7f0    
   42    2Cu7f+1       2Cu7f+2       2Cu7f+3       2Cu8f-3       2Cu8f-2       2Cu8f-1       2Cu8f0        2Cu8f+1       2Cu8f+2       2Cu8f+3   
   43    2Cu9f-3       2Cu9f-2       2Cu9f-1       2Cu9f0        2Cu9f+1       2Cu9f+2       2Cu9f+3       2Cu1g-4       2Cu1g-3       2Cu1g-2   
   44    2Cu1g-1       2Cu1g0        2Cu1g+1       2Cu1g+2       2Cu1g+3       2Cu1g+4       2Cu2g-4       2Cu2g-3       2Cu2g-2       2Cu2g-1   
   45    2Cu2g0        2Cu2g+1       2Cu2g+2       2Cu2g+3       2Cu2g+4       2Cu3g-4       2Cu3g-3       2Cu3g-2       2Cu3g-1       2Cu3g0    
   46    2Cu3g+1       2Cu3g+2       2Cu3g+3       2Cu3g+4       2Cu4g-4       2Cu4g-3       2Cu4g-2       2Cu4g-1       2Cu4g0        2Cu4g+1   
   47    2Cu4g+2       2Cu4g+3       2Cu4g+4       2Cu5g-4       2Cu5g-3       2Cu5g-2       2Cu5g-1       2Cu5g0        2Cu5g+1       2Cu5g+2   
   48    2Cu5g+3       2Cu5g+4       2Cu1h-5       2Cu1h-4       2Cu1h-3       2Cu1h-2       2Cu1h-1       2Cu1h0        2Cu1h+1       2Cu1h+2   
   49    2Cu1h+3       2Cu1h+4       2Cu1h+5       2Cu2h-5       2Cu2h-4       2Cu2h-3       2Cu2h-2       2Cu2h-1       2Cu2h0        2Cu2h+1   
   50    2Cu2h+2       2Cu2h+3       2Cu2h+4       2Cu2h+5       2Cu3h-5       2Cu3h-4       2Cu3h-3       2Cu3h-2       2Cu3h-1       2Cu3h0    
   51    2Cu3h+1       2Cu3h+2       2Cu3h+3       2Cu3h+4       2Cu3h+5       2Cu1i-6       2Cu1i-5       2Cu1i-4       2Cu1i-3       2Cu1i-2   
   52    2Cu1i-1       2Cu1i0        2Cu1i+1       2Cu1i+2       2Cu1i+3       2Cu1i+4       2Cu1i+5       2Cu1i+6       3Cu1s         3Cu2s     
   53    3Cu3s         3Cu4s         3Cu5s         3Cu6s         3Cu7s         3Cu8s         3Cu9s         3Cu10s        3Cu11s        3Cu12s    
   54    3Cu13s        3Cu14s        3Cu15s        3Cu16s        3Cu1pz        3Cu1py        3Cu1px        3Cu2pz        3Cu2py        3Cu2px    
   55    3Cu3pz        3Cu3py        3Cu3px        3Cu4pz        3Cu4py        3Cu4px        3Cu5pz        3Cu5py        3Cu5px        3Cu6pz    
   56    3Cu6py        3Cu6px        3Cu7pz        3Cu7py        3Cu7px        3Cu8pz        3Cu8py        3Cu8px        3Cu9pz        3Cu9py    
   57    3Cu9px        3Cu10pz       3Cu10py       3Cu10px       3Cu11pz       3Cu11py       3Cu11px       3Cu12pz       3Cu12py       3Cu12px   
   58    3Cu13pz       3Cu13py       3Cu13px       3Cu1d-2       3Cu1d-1       3Cu1d0        3Cu1d+1       3Cu1d+2       3Cu2d-2       3Cu2d-1   
   59    3Cu2d0        3Cu2d+1       3Cu2d+2       3Cu3d-2       3Cu3d-1       3Cu3d0        3Cu3d+1       3Cu3d+2       3Cu4d-2       3Cu4d-1   
   60    3Cu4d0        3Cu4d+1       3Cu4d+2       3Cu5d-2       3Cu5d-1       3Cu5d0        3Cu5d+1       3Cu5d+2       3Cu6d-2       3Cu6d-1   
   61    3Cu6d0        3Cu6d+1       3Cu6d+2       3Cu7d-2       3Cu7d-1       3Cu7d0        3Cu7d+1       3Cu7d+2       3Cu8d-2       3Cu8d-1   
   62    3Cu8d0        3Cu8d+1       3Cu8d+2       3Cu9d-2       3Cu9d-1       3Cu9d0        3Cu9d+1       3Cu9d+2       3Cu10d-2      3Cu10d-1  
   63    3Cu10d0       3Cu10d+1      3Cu10d+2      3Cu11d-2      3Cu11d-1      3Cu11d0       3Cu11d+1      3Cu11d+2      3Cu1f-3       3Cu1f-2   
   64    3Cu1f-1       3Cu1f0        3Cu1f+1       3Cu1f+2       3Cu1f+3       3Cu2f-3       3Cu2f-2       3Cu2f-1       3Cu2f0        3Cu2f+1   
   65    3Cu2f+2       3Cu2f+3       3Cu3f-3       3Cu3f-2       3Cu3f-1       3Cu3f0        3Cu3f+1       3Cu3f+2       3Cu3f+3       3Cu4f-3   
   66    3Cu4f-2       3Cu4f-1       3Cu4f0        3Cu4f+1       3Cu4f+2       3Cu4f+3       3Cu5f-3       3Cu5f-2       3Cu5f-1       3Cu5f0    
   67    3Cu5f+1       3Cu5f+2       3Cu5f+3       3Cu6f-3       3Cu6f-2       3Cu6f-1       3Cu6f0        3Cu6f+1       3Cu6f+2       3Cu6f+3   
   68    3Cu7f-3       3Cu7f-2       3Cu7f-1       3Cu7f0        3Cu7f+1       3Cu7f+2       3Cu7f+3       3Cu8f-3       3Cu8f-2       3Cu8f-1   
   69    3Cu8f0        3Cu8f+1       3Cu8f+2       3Cu8f+3       3Cu9f-3       3Cu9f-2       3Cu9f-1       3Cu9f0        3Cu9f+1       3Cu9f+2   
   70    3Cu9f+3       3Cu1g-4       3Cu1g-3       3Cu1g-2       3Cu1g-1       3Cu1g0        3Cu1g+1       3Cu1g+2       3Cu1g+3       3Cu1g+4   
   71    3Cu2g-4       3Cu2g-3       3Cu2g-2       3Cu2g-1       3Cu2g0        3Cu2g+1       3Cu2g+2       3Cu2g+3       3Cu2g+4       3Cu3g-4   
   72    3Cu3g-3       3Cu3g-2       3Cu3g-1       3Cu3g0        3Cu3g+1       3Cu3g+2       3Cu3g+3       3Cu3g+4       3Cu4g-4       3Cu4g-3   
   73    3Cu4g-2       3Cu4g-1       3Cu4g0        3Cu4g+1       3Cu4g+2       3Cu4g+3       3Cu4g+4       3Cu5g-4       3Cu5g-3       3Cu5g-2   
   74    3Cu5g-1       3Cu5g0        3Cu5g+1       3Cu5g+2       3Cu5g+3       3Cu5g+4       3Cu1h-5       3Cu1h-4       3Cu1h-3       3Cu1h-2   
   75    3Cu1h-1       3Cu1h0        3Cu1h+1       3Cu1h+2       3Cu1h+3       3Cu1h+4       3Cu1h+5       3Cu2h-5       3Cu2h-4       3Cu2h-3   
   76    3Cu2h-2       3Cu2h-1       3Cu2h0        3Cu2h+1       3Cu2h+2       3Cu2h+3       3Cu2h+4       3Cu2h+5       3Cu3h-5       3Cu3h-4   
   77    3Cu3h-3       3Cu3h-2       3Cu3h-1       3Cu3h0        3Cu3h+1       3Cu3h+2       3Cu3h+3       3Cu3h+4       3Cu3h+5       3Cu1i-6   
   78    3Cu1i-5       3Cu1i-4       3Cu1i-3       3Cu1i-2       3Cu1i-1       3Cu1i0        3Cu1i+1       3Cu1i+2       3Cu1i+3       3Cu1i+4   
   79    3Cu1i+5       3Cu1i+6       4Cu1s         4Cu2s         4Cu3s         4Cu4s         4Cu5s         4Cu6s         4Cu7s         4Cu8s     
   80    4Cu9s         4Cu10s        4Cu11s        4Cu12s        4Cu13s        4Cu14s        4Cu15s        4Cu16s        4Cu1pz        4Cu1py    
   81    4Cu1px        4Cu2pz        4Cu2py        4Cu2px        4Cu3pz        4Cu3py        4Cu3px        4Cu4pz        4Cu4py        4Cu4px    
   82    4Cu5pz        4Cu5py        4Cu5px        4Cu6pz        4Cu6py        4Cu6px        4Cu7pz        4Cu7py        4Cu7px        4Cu8pz    
   83    4Cu8py        4Cu8px        4Cu9pz        4Cu9py        4Cu9px        4Cu10pz       4Cu10py       4Cu10px       4Cu11pz       4Cu11py   
   84    4Cu11px       4Cu12pz       4Cu12py       4Cu12px       4Cu13pz       4Cu13py       4Cu13px       4Cu1d-2       4Cu1d-1       4Cu1d0    
   85    4Cu1d+1       4Cu1d+2       4Cu2d-2       4Cu2d-1       4Cu2d0        4Cu2d+1       4Cu2d+2       4Cu3d-2       4Cu3d-1       4Cu3d0    
   86    4Cu3d+1       4Cu3d+2       4Cu4d-2       4Cu4d-1       4Cu4d0        4Cu4d+1       4Cu4d+2       4Cu5d-2       4Cu5d-1       4Cu5d0    
   87    4Cu5d+1       4Cu5d+2       4Cu6d-2       4Cu6d-1       4Cu6d0        4Cu6d+1       4Cu6d+2       4Cu7d-2       4Cu7d-1       4Cu7d0    
   88    4Cu7d+1       4Cu7d+2       4Cu8d-2       4Cu8d-1       4Cu8d0        4Cu8d+1       4Cu8d+2       4Cu9d-2       4Cu9d-1       4Cu9d0    
   89    4Cu9d+1       4Cu9d+2       4Cu10d-2      4Cu10d-1      4Cu10d0       4Cu10d+1      4Cu10d+2      4Cu11d-2      4Cu11d-1      4Cu11d0   
   90    4Cu11d+1      4Cu11d+2      4Cu1f-3       4Cu1f-2       4Cu1f-1       4Cu1f0        4Cu1f+1       4Cu1f+2       4Cu1f+3       4Cu2f-3   
   91    4Cu2f-2       4Cu2f-1       4Cu2f0        4Cu2f+1       4Cu2f+2       4Cu2f+3       4Cu3f-3       4Cu3f-2       4Cu3f-1       4Cu3f0    
   92    4Cu3f+1       4Cu3f+2       4Cu3f+3       4Cu4f-3       4Cu4f-2       4Cu4f-1       4Cu4f0        4Cu4f+1       4Cu4f+2       4Cu4f+3   
   93    4Cu5f-3       4Cu5f-2       4Cu5f-1       4Cu5f0        4Cu5f+1       4Cu5f+2       4Cu5f+3       4Cu6f-3       4Cu6f-2       4Cu6f-1   
   94    4Cu6f0        4Cu6f+1       4Cu6f+2       4Cu6f+3       4Cu7f-3       4Cu7f-2       4Cu7f-1       4Cu7f0        4Cu7f+1       4Cu7f+2   
   95    4Cu7f+3       4Cu8f-3       4Cu8f-2       4Cu8f-1       4Cu8f0        4Cu8f+1       4Cu8f+2       4Cu8f+3       4Cu9f-3       4Cu9f-2   
   96    4Cu9f-1       4Cu9f0        4Cu9f+1       4Cu9f+2       4Cu9f+3       4Cu1g-4       4Cu1g-3       4Cu1g-2       4Cu1g-1       4Cu1g0    
   97    4Cu1g+1       4Cu1g+2       4Cu1g+3       4Cu1g+4       4Cu2g-4       4Cu2g-3       4Cu2g-2       4Cu2g-1       4Cu2g0        4Cu2g+1   
   98    4Cu2g+2       4Cu2g+3       4Cu2g+4       4Cu3g-4       4Cu3g-3       4Cu3g-2       4Cu3g-1       4Cu3g0        4Cu3g+1       4Cu3g+2   
   99    4Cu3g+3       4Cu3g+4       4Cu4g-4       4Cu4g-3       4Cu4g-2       4Cu4g-1       4Cu4g0        4Cu4g+1       4Cu4g+2       4Cu4g+3   
  100    4Cu4g+4       4Cu5g-4       4Cu5g-3       4Cu5g-2       4Cu5g-1       4Cu5g0        4Cu5g+1       4Cu5g+2       4Cu5g+3       4Cu5g+4   
  101    4Cu1h-5       4Cu1h-4       4Cu1h-3       4Cu1h-2       4Cu1h-1       4Cu1h0        4Cu1h+1       4Cu1h+2       4Cu1h+3       4Cu1h+4   
  102    4Cu1h+5       4Cu2h-5       4Cu2h-4       4Cu2h-3       4Cu2h-2       4Cu2h-1       4Cu2h0        4Cu2h+1       4Cu2h+2       4Cu2h+3   
  103    4Cu2h+4       4Cu2h+5       4Cu3h-5       4Cu3h-4       4Cu3h-3       4Cu3h-2       4Cu3h-1       4Cu3h0        4Cu3h+1       4Cu3h+2   
  104    4Cu3h+3       4Cu3h+4       4Cu3h+5       4Cu1i-6       4Cu1i-5       4Cu1i-4       4Cu1i-3       4Cu1i-2       4Cu1i-1       4Cu1i0    
  105    4Cu1i+1       4Cu1i+2       4Cu1i+3       4Cu1i+4       4Cu1i+5       4Cu1i+6       5Cu1s         5Cu2s         5Cu3s         5Cu4s     
  106    5Cu5s         5Cu6s         5Cu7s         5Cu8s         5Cu9s         5Cu10s        5Cu11s        5Cu12s        5Cu13s        5Cu14s    
  107    5Cu15s        5Cu16s        5Cu1pz        5Cu1py        5Cu1px        5Cu2pz        5Cu2py        5Cu2px        5Cu3pz        5Cu3py    
  108    5Cu3px        5Cu4pz        5Cu4py        5Cu4px        5Cu5pz        5Cu5py        5Cu5px        5Cu6pz        5Cu6py        5Cu6px    
  109    5Cu7pz        5Cu7py        5Cu7px        5Cu8pz        5Cu8py        5Cu8px        5Cu9pz        5Cu9py        5Cu9px        5Cu10pz   
  110    5Cu10py       5Cu10px       5Cu11pz       5Cu11py       5Cu11px       5Cu12pz       5Cu12py       5Cu12px       5Cu13pz       5Cu13py   
  111    5Cu13px       5Cu1d-2       5Cu1d-1       5Cu1d0        5Cu1d+1       5Cu1d+2       5Cu2d-2       5Cu2d-1       5Cu2d0        5Cu2d+1   
  112    5Cu2d+2       5Cu3d-2       5Cu3d-1       5Cu3d0        5Cu3d+1       5Cu3d+2       5Cu4d-2       5Cu4d-1       5Cu4d0        5Cu4d+1   
  113    5Cu4d+2       5Cu5d-2       5Cu5d-1       5Cu5d0        5Cu5d+1       5Cu5d+2       5Cu6d-2       5Cu6d-1       5Cu6d0        5Cu6d+1   
  114    5Cu6d+2       5Cu7d-2       5Cu7d-1       5Cu7d0        5Cu7d+1       5Cu7d+2       5Cu8d-2       5Cu8d-1       5Cu8d0        5Cu8d+1   
  115    5Cu8d+2       5Cu9d-2       5Cu9d-1       5Cu9d0        5Cu9d+1       5Cu9d+2       5Cu10d-2      5Cu10d-1      5Cu10d0       5Cu10d+1  
  116    5Cu10d+2      5Cu11d-2      5Cu11d-1      5Cu11d0       5Cu11d+1      5Cu11d+2      5Cu1f-3       5Cu1f-2       5Cu1f-1       5Cu1f0    
  117    5Cu1f+1       5Cu1f+2       5Cu1f+3       5Cu2f-3       5Cu2f-2       5Cu2f-1       5Cu2f0        5Cu2f+1       5Cu2f+2       5Cu2f+3   
  118    5Cu3f-3       5Cu3f-2       5Cu3f-1       5Cu3f0        5Cu3f+1       5Cu3f+2       5Cu3f+3       5Cu4f-3       5Cu4f-2       5Cu4f-1   
  119    5Cu4f0        5Cu4f+1       5Cu4f+2       5Cu4f+3       5Cu5f-3       5Cu5f-2       5Cu5f-1       5Cu5f0        5Cu5f+1       5Cu5f+2   
  120    5Cu5f+3       5Cu6f-3       5Cu6f-2       5Cu6f-1       5Cu6f0        5Cu6f+1       5Cu6f+2       5Cu6f+3       5Cu7f-3       5Cu7f-2   
  121    5Cu7f-1       5Cu7f0        5Cu7f+1       5Cu7f+2       5Cu7f+3       5Cu8f-3       5Cu8f-2       5Cu8f-1       5Cu8f0        5Cu8f+1   
  122    5Cu8f+2       5Cu8f+3       5Cu9f-3       5Cu9f-2       5Cu9f-1       5Cu9f0        5Cu9f+1       5Cu9f+2       5Cu9f+3       5Cu1g-4   
  123    5Cu1g-3       5Cu1g-2       5Cu1g-1       5Cu1g0        5Cu1g+1       5Cu1g+2       5Cu1g+3       5Cu1g+4       5Cu2g-4       5Cu2g-3   
  124    5Cu2g-2       5Cu2g-1       5Cu2g0        5Cu2g+1       5Cu2g+2       5Cu2g+3       5Cu2g+4       5Cu3g-4       5Cu3g-3       5Cu3g-2   
  125    5Cu3g-1       5Cu3g0        5Cu3g+1       5Cu3g+2       5Cu3g+3       5Cu3g+4       5Cu4g-4       5Cu4g-3       5Cu4g-2       5Cu4g-1   
  126    5Cu4g0        5Cu4g+1       5Cu4g+2       5Cu4g+3       5Cu4g+4       5Cu5g-4       5Cu5g-3       5Cu5g-2       5Cu5g-1       5Cu5g0    
  127    5Cu5g+1       5Cu5g+2       5Cu5g+3       5Cu5g+4       5Cu1h-5       5Cu1h-4       5Cu1h-3       5Cu1h-2       5Cu1h-1       5Cu1h0    
  128    5Cu1h+1       5Cu1h+2       5Cu1h+3       5Cu1h+4       5Cu1h+5       5Cu2h-5       5Cu2h-4       5Cu2h-3       5Cu2h-2       5Cu2h-1   
  129    5Cu2h0        5Cu2h+1       5Cu2h+2       5Cu2h+3       5Cu2h+4       5Cu2h+5       5Cu3h-5       5Cu3h-4       5Cu3h-3       5Cu3h-2   
  130    5Cu3h-1       5Cu3h0        5Cu3h+1       5Cu3h+2       5Cu3h+3       5Cu3h+4       5Cu3h+5       5Cu1i-6       5Cu1i-5       5Cu1i-4   
  131    5Cu1i-3       5Cu1i-2       5Cu1i-1       5Cu1i0        5Cu1i+1       5Cu1i+2       5Cu1i+3       5Cu1i+4       5Cu1i+5       5Cu1i+6   
  132    6Cu1s         6Cu2s         6Cu3s         6Cu4s         6Cu5s         6Cu6s         6Cu7s         6Cu8s         6Cu9s         6Cu10s    
  133    6Cu11s        6Cu12s        6Cu13s        6Cu14s        6Cu15s        6Cu16s        6Cu1pz        6Cu1py        6Cu1px        6Cu2pz    
  134    6Cu2py        6Cu2px        6Cu3pz        6Cu3py        6Cu3px        6Cu4pz        6Cu4py        6Cu4px        6Cu5pz        6Cu5py    
  135    6Cu5px        6Cu6pz        6Cu6py        6Cu6px        6Cu7pz        6Cu7py        6Cu7px        6Cu8pz        6Cu8py        6Cu8px    
  136    6Cu9pz        6Cu9py        6Cu9px        6Cu10pz       6Cu10py       6Cu10px       6Cu11pz       6Cu11py       6Cu11px       6Cu12pz   
  137    6Cu12py       6Cu12px       6Cu13pz       6Cu13py       6Cu13px       6Cu1d-2       6Cu1d-1       6Cu1d0        6Cu1d+1       6Cu1d+2   
  138    6Cu2d-2       6Cu2d-1       6Cu2d0        6Cu2d+1       6Cu2d+2       6Cu3d-2       6Cu3d-1       6Cu3d0        6Cu3d+1       6Cu3d+2   
  139    6Cu4d-2       6Cu4d-1       6Cu4d0        6Cu4d+1       6Cu4d+2       6Cu5d-2       6Cu5d-1       6Cu5d0        6Cu5d+1       6Cu5d+2   
  140    6Cu6d-2       6Cu6d-1       6Cu6d0        6Cu6d+1       6Cu6d+2       6Cu7d-2       6Cu7d-1       6Cu7d0        6Cu7d+1       6Cu7d+2   
  141    6Cu8d-2       6Cu8d-1       6Cu8d0        6Cu8d+1       6Cu8d+2       6Cu9d-2       6Cu9d-1       6Cu9d0        6Cu9d+1       6Cu9d+2   
  142    6Cu10d-2      6Cu10d-1      6Cu10d0       6Cu10d+1      6Cu10d+2      6Cu11d-2      6Cu11d-1      6Cu11d0       6Cu11d+1      6Cu11d+2  
  143    6Cu1f-3       6Cu1f-2       6Cu1f-1       6Cu1f0        6Cu1f+1       6Cu1f+2       6Cu1f+3       6Cu2f-3       6Cu2f-2       6Cu2f-1   
  144    6Cu2f0        6Cu2f+1       6Cu2f+2       6Cu2f+3       6Cu3f-3       6Cu3f-2       6Cu3f-1       6Cu3f0        6Cu3f+1       6Cu3f+2   
  145    6Cu3f+3       6Cu4f-3       6Cu4f-2       6Cu4f-1       6Cu4f0        6Cu4f+1       6Cu4f+2       6Cu4f+3       6Cu5f-3       6Cu5f-2   
  146    6Cu5f-1       6Cu5f0        6Cu5f+1       6Cu5f+2       6Cu5f+3       6Cu6f-3       6Cu6f-2       6Cu6f-1       6Cu6f0        6Cu6f+1   
  147    6Cu6f+2       6Cu6f+3       6Cu7f-3       6Cu7f-2       6Cu7f-1       6Cu7f0        6Cu7f+1       6Cu7f+2       6Cu7f+3       6Cu8f-3   
  148    6Cu8f-2       6Cu8f-1       6Cu8f0        6Cu8f+1       6Cu8f+2       6Cu8f+3       6Cu9f-3       6Cu9f-2       6Cu9f-1       6Cu9f0    
  149    6Cu9f+1       6Cu9f+2       6Cu9f+3       6Cu1g-4       6Cu1g-3       6Cu1g-2       6Cu1g-1       6Cu1g0        6Cu1g+1       6Cu1g+2   
  150    6Cu1g+3       6Cu1g+4       6Cu2g-4       6Cu2g-3       6Cu2g-2       6Cu2g-1       6Cu2g0        6Cu2g+1       6Cu2g+2       6Cu2g+3   
  151    6Cu2g+4       6Cu3g-4       6Cu3g-3       6Cu3g-2       6Cu3g-1       6Cu3g0        6Cu3g+1       6Cu3g+2       6Cu3g+3       6Cu3g+4   
  152    6Cu4g-4       6Cu4g-3       6Cu4g-2       6Cu4g-1       6Cu4g0        6Cu4g+1       6Cu4g+2       6Cu4g+3       6Cu4g+4       6Cu5g-4   
  153    6Cu5g-3       6Cu5g-2       6Cu5g-1       6Cu5g0        6Cu5g+1       6Cu5g+2       6Cu5g+3       6Cu5g+4       6Cu1h-5       6Cu1h-4   
  154    6Cu1h-3       6Cu1h-2       6Cu1h-1       6Cu1h0        6Cu1h+1       6Cu1h+2       6Cu1h+3       6Cu1h+4       6Cu1h+5       6Cu2h-5   
  155    6Cu2h-4       6Cu2h-3       6Cu2h-2       6Cu2h-1       6Cu2h0        6Cu2h+1       6Cu2h+2       6Cu2h+3       6Cu2h+4       6Cu2h+5   
  156    6Cu3h-5       6Cu3h-4       6Cu3h-3       6Cu3h-2       6Cu3h-1       6Cu3h0        6Cu3h+1       6Cu3h+2       6Cu3h+3       6Cu3h+4   
  157    6Cu3h+5       6Cu1i-6       6Cu1i-5       6Cu1i-4       6Cu1i-3       6Cu1i-2       6Cu1i-1       6Cu1i0        6Cu1i+1       6Cu1i+2   
  158    6Cu1i+3       6Cu1i+4       6Cu1i+5       6Cu1i+6   
 
 Maximum number of basis functions per shell:   63
 Total number of basis functions:   1584
 
 
 Effective core potentials:
 
   1  Cu mcdhf-ecp-10        
   2  Cu mcdhf-ecp-10        
   3  Cu mcdhf-ecp-10        
   4  Cu mcdhf-ecp-10        
   5  Cu mcdhf-ecp-10        
   6  Cu mcdhf-ecp-10        
 
 Initializing the SAD routines for the initial guess...
 Checking the files required for the initial guess...
 Density files have not been found for the initial guess.
 Generating SCFDENSITIES.Cu.def2-svp.0
 CPU time [min]:     0.115                   Wall time [min]:     0.179
 
 Character table for point group C1:
 
          E  
    A     1
 
 Number of basis functions per irrep:
    A     186
 
 
 Density functional: B2PLYP
 Constructing integration grid for DFT...
 Angular integration grid: adaptive 590-point Lebedev quadrature
 Radial integration grid: Log3 quadrature
 Total number of grid points: 120423      
 CPU time [min]:     1.277                   Wall time [min]:     0.213
 
 Calculation of overlap integrals...
 CPU time [min]:     1.281                   Wall time [min]:     0.213
 
 Calculation of the square root of the overlap matrix...
 Minimum eigenvalue of the overlap matrix: 0.119531E-01
 CPU time [min]:     1.324                   Wall time [min]:     0.216
 
 Calculation of kinetic energy integrals...
 CPU time [min]:     1.325                   Wall time [min]:     0.216
 Calculation of dipole moment integrals...
 CPU time [min]:     1.327                   Wall time [min]:     0.216
 Calculation of nuclear attraction integrals...
 CPU time [min]:     1.330                   Wall time [min]:     0.216
 Calculation of core potential integrals...
 CPU time [min]:     1.490                   Wall time [min]:     0.268
 
 Calculation of prescreening integrals...
 CPU time [min]:     2.167                   Wall time [min]:     0.287
 
 Calculation of two-center Coulomb integrals...
   1% done.
  12% done.
  24% done.
  37% done.
  49% done.
  60% done.
  71% done.
  82% done.
  94% done.
 100% done.
 CPU time [min]:     2.282                   Wall time [min]:     0.290
 
 Cholesky decomposition of the two-center matrix...
 Reciprocal of the condition number:  0.274408E-05
 CPU time [min]:     2.377                   Wall time [min]:     0.293
 
 
 Running small-basis SCF...

 ************************ 2023-02-15 05:54:22 *************************
 Executing scf...

 @scfsetup: integrals calculated directly
            mrcc/integ direct run
 @scfsetup: calculating on full matrices
            not using symmetry adapted basis
 @scfsetup: diis switched on
 @scfsetup: number of steps to extrapolate from  10
 @scfsetup: tolerance in energy deviation    0.100000E-05
            tolerance in density deviation    0.100000E-06
 @scfsetup: maximum number of iterations:  50
 @scfsetup: restricted closed shell hf calc
 @scfsetup: starting scf from superposition of atomic densities
 @scfsetup: occupation set:
            from initial orbitals
 @scfsetup: Parameter-set for SCF acceleration: difficult
 @scfsetup: diis runs from iteration:   2
 @scfsetup: diis runs to iteration:  50
 @scfsetup: diis runs in every iteration
 @scfsetup: diiswatch is disabled                   
 @scfsetup: diis dtol criteria to switch on:      0.0000E+00
           (or the iteration number below is reached)
 @scfsetup: static damping scheme
            iteration step criteria to turn damping off: 3
 @scfsetup: dynamic level shifting
            tolarance in HOMO-LUMO gap:  0.200
            tolarance in density deviation:     0.0000E+00
            iteration step criteria to turn level shifting off: 8
 Allocation of 220.0 Gbytes of memory...
 ======================================================================
 ITERATION STEP   1
 CPU time [min]:     0.053                   Wall time [min]:     0.006
 

 SCF control                  : initial
 Damping factor/level shift   : 0.700/0.200
 DIIS [start/end/frequency]   :   2 / 50 /  1

 Constructing Fock-matrix...
 
 Pipek-Mezey localization...
 Step  Convergence
   1   9.149727910155
   2   5.428326327952
   3   0.159837150184
   4   0.000672827335
   5   0.000061405335
   6   0.000033234244
   7   0.000008954279
   8   0.000002946603
   9   0.000001955758
  10   0.000000500707
 CPU time [min]:     0.092                   Wall time [min]:     0.007
 
 Constructing local fitting domains...
 Maximum number of atoms in fitting domains:    6
 Average number of atoms in fitting domains:    5.7
 
 First step of Coulomb + first step of exchange...
 Exchange contribution is evaluated for MOs 1 to 57.
   1% done.
  13% done.
  25% done.
  40% done.
  55% done.
  70% done.
  83% done.
 100% done.
 Fitting and assembly step of exchange...
 CPU time [min]:     1.793                   Wall time [min]:     0.055
 
 Second step of Coulomb...
   1% done.
  13% done.
  25% done.
  40% done.
  55% done.
  70% done.
  83% done.
 100% done.
 CPU time [min]:     1.892                   Wall time [min]:     0.058
 
 Calculating the exchange-correlation matrix...
                   0.4700*B88 [au]:    -57.968006480786
                   0.7300*LYP [au]:     -3.573273722669
 Exchange-correlation energy  [au]:    -61.541280203455
 CPU time [min]:     2.395                   Wall time [min]:     0.085
 
 Coulomb energy + HF exchange [au]:   2110.381836869316
 Gradient norm:      4.5388E+00
 RMS of [F,P]:                                         0.06159038199520
 RMS of difference density:                            0.02531917108452
 Gap [au]:  0.01521701
 ALPHA OCC:  57
 BETA  OCC:  57
 
 ***KOHN-SHAM ENERGY IN STEP   1 IS         -1156.9789010344848066 [AU]
 ======================================================================
 ITERATION STEP   2
 CPU time [min]:     2.428                   Wall time [min]:     0.086
 

 SCF control                  : diis+damping
 Damping factor/level shift   : 0.700/0.200
 DIIS [start/end/frequency]   :   2 / 50 /  1

 Constructing Fock-matrix...
 
 Pipek-Mezey localization...
 Step  Convergence
   1  14.920492739029
   2   5.744936202273
   3   0.757278947159
   4   0.517360762240
   5   0.010667847609
   6   0.000000418660
 CPU time [min]:     2.463                   Wall time [min]:     0.087
 
 Constructing local fitting domains...
 Maximum number of atoms in fitting domains:    6
 Average number of atoms in fitting domains:    5.7
 
 First step of Coulomb + first step of exchange...
 Exchange contribution is evaluated for MOs 1 to 57.
   1% done.
  13% done.
  25% done.
  40% done.
  55% done.
  70% done.
  83% done.
 100% done.
 Fitting and assembly step of exchange...
 CPU time [min]:     3.917                   Wall time [min]:     0.128
 
 Second step of Coulomb...
   1% done.
  13% done.
  25% done.
  40% done.
  55% done.
  70% done.
  83% done.
 100% done.
 CPU time [min]:     3.998                   Wall time [min]:     0.130
 
 Calculating the exchange-correlation matrix...
                   0.4700*B88 [au]:    -55.680653180564
                   0.7300*LYP [au]:     -3.549508178041
 Exchange-correlation energy  [au]:    -59.230161358604
 CPU time [min]:     4.474                   Wall time [min]:     0.156
 
 Coulomb energy + HF exchange [au]:   2063.518210892707
 Gradient norm:      6.7306E-01
 DIIS is running in this iteration step.
 RMS of [F,P]:                                         0.04658322188413
 RMS of difference density:                            0.02792978439982
 Gap [au]:  0.00014465
 ALPHA OCC:  57
 BETA  OCC:  57
 
 ***KOHN-SHAM ENERGY IN STEP   2 IS         -1163.1890177035766101 [AU]
 
 Step comparison  Energy Drift [au]  DIIS error drift  Gradient drift
        1            6.2101E+00         1.5007E-02       3.8657E+00
        2            1.1632E+03         1.0000E-07       3.8657E+00
 ======================================================================
 ITERATION STEP   3
 CPU time [min]:     4.491                   Wall time [min]:     0.156
 

 SCF control                  : diis+damping
 Damping factor/level shift   : 0.700/0.200
 DIIS [start/end/frequency]   :   2 / 50 /  1

 Constructing Fock-matrix...
 
 Pipek-Mezey localization...
 Step  Convergence
   1  13.419619830971
   2   8.938229747867
   3   2.349482888623
   4   0.465968648509
   5   0.026481808039
   6   0.000738902409
   7   0.000092310509
   8   0.000015345583
   9   0.000002611865
  10   0.000000459041
 CPU time [min]:     4.523                   Wall time [min]:     0.157
 
 Constructing local fitting domains...
 Local fitting domains are unchanged.
 
 First step of Coulomb + first step of exchange...
 Exchange contribution is evaluated for MOs 1 to 57.
   1% done.
  13% done.
  25% done.
  40% done.
  55% done.
  70% done.
  83% done.
 100% done.
 Fitting and assembly step of exchange...
 CPU time [min]:     5.976                   Wall time [min]:     0.198
 
 Second step of Coulomb...
   1% done.
  13% done.
  25% done.
  40% done.
  55% done.
  70% done.
  83% done.
 100% done.
 CPU time [min]:     6.057                   Wall time [min]:     0.200
 
 Calculating the exchange-correlation matrix...
                   0.4700*B88 [au]:    -52.811388265759
                   0.7300*LYP [au]:     -3.505923621660
 Exchange-correlation energy  [au]:    -56.317311887419
 CPU time [min]:     6.533                   Wall time [min]:     0.226
 
 Coulomb energy + HF exchange [au]:   2005.314466999566
 Gradient norm:      5.5892E-01
 DIIS is running in this iteration step.
 RMS of [F,P]:                                         0.02561194616261
 RMS of difference density:                            0.01191713985294
 Gap [au]:  0.05347100
 ALPHA OCC:  57
 BETA  OCC:  57
 
 ***KOHN-SHAM ENERGY IN STEP   3 IS         -1167.7758983260650893 [AU]
 
 Step comparison  Energy Drift [au]  DIIS error drift  Gradient drift
        2            4.5869E+00         2.0971E-02       1.1413E-01
 ======================================================================
 ITERATION STEP   4
 CPU time [min]:     6.547                   Wall time [min]:     0.226
 

 SCF control                  : diis
 Damping factor/level shift   : 0.000/0.200
 DIIS [start/end/frequency]   :   2 / 50 /  1

 Constructing Fock-matrix...
 
 Pipek-Mezey localization...
 Step  Convergence
   1  16.152386748731
   2   5.906710884272
   3   1.460328294144
   4   0.134216220407
   5   0.004694070463
   6   0.000347649593
   7   0.000040459316
   8   0.000012468509
   9   0.000002850647
  10   0.000000771250
 CPU time [min]:     6.579                   Wall time [min]:     0.227
 
 Constructing local fitting domains...
 Local fitting domains are unchanged.
 
 First step of Coulomb + first step of exchange...
 Exchange contribution is evaluated for MOs 1 to 57.
   1% done.
  13% done.
  25% done.
  40% done.
  55% done.
  70% done.
  83% done.
 100% done.
 Fitting and assembly step of exchange...
 CPU time [min]:     8.033                   Wall time [min]:     0.267
 
 Second step of Coulomb...
   1% done.
  13% done.
  25% done.
  40% done.
  55% done.
  70% done.
  83% done.
 100% done.
 CPU time [min]:     8.114                   Wall time [min]:     0.270
 
 Calculating the exchange-correlation matrix...
                   0.4700*B88 [au]:    -51.788461572578
                   0.7300*LYP [au]:     -3.517636472651
 Exchange-correlation energy  [au]:    -55.306098045229
 CPU time [min]:     8.589                   Wall time [min]:     0.295
 
 Coulomb energy + HF exchange [au]:   2006.251871747619
 Gradient norm:      6.3408E-01
 DIIS is running in this iteration step.
 RMS of [F,P]:                                         0.02221263678971
 RMS of difference density:                            0.03191086503589
 Gap [au]:  0.09162221
 ALPHA OCC:  57
 BETA  OCC:  57
 
 ***KOHN-SHAM ENERGY IN STEP   4 IS         -1167.4381896657505422 [AU]
 
 Step comparison  Energy Drift [au]  DIIS error drift  Gradient drift
        3           -3.3771E-01         3.3993E-03      -7.5152E-02
 Warning! The energy goes uphill (with respect to previous step).
 Warning! The gradient goes uphill (with respect to previous step).
 Warning! The gradient goes uphill (with respect to step   3 ).
 ======================================================================
 ITERATION STEP   5
 CPU time [min]:     8.600                   Wall time [min]:     0.296
 

 SCF control                  : diis
 Damping factor/level shift   : 0.000/0.200
 DIIS [start/end/frequency]   :   2 / 50 /  1

 Constructing Fock-matrix...
 
 Pipek-Mezey localization...
 Step  Convergence
   1  19.202538744083
   2   5.928766887087
   3   0.411282242874
   4   0.005316103521
   5   0.000129422110
   6   0.000010278075
   7   0.000002258658
   8   0.000000673076
 CPU time [min]:     8.629                   Wall time [min]:     0.296
 
 Constructing local fitting domains...
 Local fitting domains are unchanged.
 
 First step of Coulomb + first step of exchange...
 Exchange contribution is evaluated for MOs 1 to 57.
   1% done.
  13% done.
  25% done.
  40% done.
  55% done.
  70% done.
  83% done.
 100% done.
 Fitting and assembly step of exchange...
 CPU time [min]:    10.085                   Wall time [min]:     0.337
 
 Second step of Coulomb...
   1% done.
  13% done.
  25% done.
  40% done.
  55% done.
  70% done.
  83% done.
 100% done.
 CPU time [min]:    10.166                   Wall time [min]:     0.339
 
 Calculating the exchange-correlation matrix...
                   0.4700*B88 [au]:    -50.965734075962
                   0.7300*LYP [au]:     -3.512339497089
 Exchange-correlation energy  [au]:    -54.478073573052
 CPU time [min]:    10.642                   Wall time [min]:     0.365
 
 Coulomb energy + HF exchange [au]:   1990.693824698222
 Gradient norm:      2.7782E-01
 DIIS is running in this iteration step.
 RMS of [F,P]:                                         0.00622377525458
 RMS of difference density:                            0.00379498113668
 Gap [au]:  0.08801236
 ALPHA OCC:  57
 BETA  OCC:  57
 
 ***KOHN-SHAM ENERGY IN STEP   5 IS         -1170.0224134673335357 [AU]
 
 Step comparison  Energy Drift [au]  DIIS error drift  Gradient drift
        4            2.5842E+00         1.5989E-02       3.5626E-01
 ======================================================================
 ITERATION STEP   6
 CPU time [min]:    10.652                   Wall time [min]:     0.365
 

 SCF control                  : diis
 Damping factor/level shift   : 0.000/0.200
 DIIS [start/end/frequency]   :   2 / 50 /  1

 Constructing Fock-matrix...
 
 Pipek-Mezey localization...
 Step  Convergence
   1  19.660033709735
   2   5.417314287355
   3   0.715047049989
   4   0.094938051301
   5   0.000490014540
   6   0.000004579312
   7   0.000000060404
 CPU time [min]:    10.679                   Wall time [min]:     0.366
 
 Constructing local fitting domains...
 Local fitting domains are unchanged.
 
 First step of Coulomb + first step of exchange...
 Exchange contribution is evaluated for MOs 1 to 57.
   1% done.
  13% done.
  25% done.
  40% done.
  55% done.
  70% done.
  83% done.
 100% done.
 Fitting and assembly step of exchange...
 CPU time [min]:    12.134                   Wall time [min]:     0.407
 
 Second step of Coulomb...
   1% done.
  13% done.
  25% done.
  40% done.
  55% done.
  70% done.
  83% done.
 100% done.
 CPU time [min]:    12.215                   Wall time [min]:     0.409
 
 Calculating the exchange-correlation matrix...
                   0.4700*B88 [au]:    -51.165166884713
                   0.7300*LYP [au]:     -3.515280116326
 Exchange-correlation energy  [au]:    -54.680447001040
 CPU time [min]:    12.690                   Wall time [min]:     0.434
 
 Coulomb energy + HF exchange [au]:   1993.302534900075
 Gradient norm:      1.6355E-01
 DIIS is running in this iteration step.
 RMS of [F,P]:                                         0.00317773873294
 RMS of difference density:                            0.00224479383886
 Gap [au]:  0.08542027
 ALPHA OCC:  57
 BETA  OCC:  57
 
 ***KOHN-SHAM ENERGY IN STEP   6 IS         -1170.1044710017981743 [AU]
 
 Step comparison  Energy Drift [au]  DIIS error drift  Gradient drift
        5            8.2058E-02         3.0460E-03       1.1427E-01
 ======================================================================
 ITERATION STEP   7
 CPU time [min]:    12.729                   Wall time [min]:     0.436
 

 SCF control                  : diis
 Damping factor/level shift   : 0.000/0.200
 DIIS [start/end/frequency]   :   2 / 50 /  1

 Constructing Fock-matrix...
 
 Pipek-Mezey localization...
 Step  Convergence
   1  21.501060244499
   2   9.129806843385
   3   2.306607934200
   4   0.067234158338
   5   0.000769676486
   6   0.000004996815
   7   0.000000087095
 CPU time [min]:    12.755                   Wall time [min]:     0.436
 
 Constructing local fitting domains...
 Local fitting domains are unchanged.
 
 First step of Coulomb + first step of exchange...
 Exchange contribution is evaluated for MOs 1 to 57.
   1% done.
  13% done.
  25% done.
  40% done.
  55% done.
  70% done.
  83% done.
 100% done.
 Fitting and assembly step of exchange...
 CPU time [min]:    14.208                   Wall time [min]:     0.477
 
 Second step of Coulomb...
   1% done.
  13% done.
  25% done.
  40% done.
  55% done.
  70% done.
  83% done.
 100% done.
 CPU time [min]:    14.289                   Wall time [min]:     0.479
 
 Calculating the exchange-correlation matrix...
                   0.4700*B88 [au]:    -51.258550828549
                   0.7300*LYP [au]:     -3.515735401092
 Exchange-correlation energy  [au]:    -54.774286229642
 CPU time [min]:    14.780                   Wall time [min]:     0.505
 
 Coulomb energy + HF exchange [au]:   1994.373679186019
 Gradient norm:      6.5305E-02
 DIIS is running in this iteration step.
 RMS of [F,P]:                                         0.00128271915254
 RMS of difference density:                            0.00127763713740
 Gap [au]:  0.08647770
 ALPHA OCC:  57
 BETA  OCC:  57
 
 ***KOHN-SHAM ENERGY IN STEP   7 IS         -1170.1309675076072381 [AU]
 
 Step comparison  Energy Drift [au]  DIIS error drift  Gradient drift
        6            2.6497E-02         1.8950E-03       9.8244E-02
 ======================================================================
 ITERATION STEP   8
 CPU time [min]:    14.811                   Wall time [min]:     0.506
 

 SCF control                  : diis
 Damping factor/level shift   : 0.000/0.200
 DIIS [start/end/frequency]   :   2 / 50 /  1

 Constructing Fock-matrix...
 
 Pipek-Mezey localization...
 Step  Convergence
   1  29.343594192828
   2   9.661351977672
   3   5.009896487940
   4   2.439724501631
   5   0.838208696744
   6   0.023458214118
   7   0.000086308543
   8   0.000003398047
   9   0.000001555880
  10   0.000001211198
  11   0.000000594545
  12   0.000000740354
  13   0.000000597153
  14   0.000000476734
  15   0.000000375938
  16   0.000000185882
  17   0.000000164324
  18   0.000000186581
  19   0.000000094890
  20   0.000000087820
  21   0.000000101061
  22   0.000000051570
  23   0.000000047913
  24   0.000000054965
  25   0.000000045636
  26   0.000000036758
  27   0.000000029034
  28   0.000000014515
  29   0.000000018097
  30   0.000000009067
 CPU time [min]:    14.871                   Wall time [min]:     0.508
 
 Constructing local fitting domains...
 Local fitting domains are unchanged.
 
 First step of Coulomb + first step of exchange...
 Exchange contribution is evaluated for MOs 1 to 57.
   1% done.
  13% done.
  25% done.
  40% done.
  55% done.
  70% done.
  83% done.
 100% done.
 Fitting and assembly step of exchange...
 CPU time [min]:    16.325                   Wall time [min]:     0.548
 
 Second step of Coulomb...
   1% done.
  13% done.
  25% done.
  40% done.
  55% done.
  70% done.
  83% done.
 100% done.
 CPU time [min]:    16.406                   Wall time [min]:     0.550
 
 Calculating the exchange-correlation matrix...
                   0.4700*B88 [au]:    -51.300303119533
                   0.7300*LYP [au]:     -3.515655094596
 Exchange-correlation energy  [au]:    -54.815958214129
 CPU time [min]:    16.882                   Wall time [min]:     0.576
 
 Coulomb energy + HF exchange [au]:   1994.702577139766
 Gradient norm:      2.5928E-02
 DIIS is running in this iteration step.
 RMS of [F,P]:                                         0.00061299348046
 RMS of difference density:                            0.00082183351604
 Gap [au]:  0.08598756
 ALPHA OCC:  57
 BETA  OCC:  57
 
 ***KOHN-SHAM ENERGY IN STEP   8 IS         -1170.1372359863225938 [AU]
 
 Step comparison  Energy Drift [au]  DIIS error drift  Gradient drift
        7            6.2685E-03         6.6973E-04       3.9378E-02
 ======================================================================
 ITERATION STEP   9
 CPU time [min]:    16.892                   Wall time [min]:     0.576
 

 SCF control                  : diis
 Damping factor/level shift   : 0.000/0.000
 DIIS [start/end/frequency]   :   2 / 50 /  1

 Constructing Fock-matrix...
 
 Pipek-Mezey localization...
 Step  Convergence
   1  22.542446206311
   2   9.871672111945
   3   8.001007110945
   4   1.980167274200
   5   0.628872653257
   6   0.001274413587
   7   0.000044089564
   8   0.000015489220
   9   0.000007728586
  10   0.000007486134
  11   0.000009465232
  12   0.000008685432
  13   0.000007813859
  14   0.000004326091
  15   0.000005968337
  16   0.000003232271
  17   0.000004637093
  18   0.000004133392
  19   0.000003643690
  20   0.000001937031
  21   0.000002661287
  22   0.000001393236
  23   0.000002010381
  24   0.000001051472
  25   0.000001523873
  26   0.000000788855
  27   0.000001145090
  28   0.000001008538
  29   0.000000525581
  30   0.000000506465
  31   0.000000400187
  32   0.000000545137
  33   0.000000484820
  34   0.000000417258
  35   0.000000212779
  36   0.000000201049
  37   0.000000247604
  38   0.000000218776
  39   0.000000187828
  40   0.000000094669
  41   0.000000129623
  42   0.000000065018
  43   0.000000094510
  44   0.000000082662
  45   0.000000070831
  46   0.000000059527
  47   0.000000049625
  48   0.000000041315
  49   0.000000034378
  50   0.000000017107
  51   0.000000023403
  52   0.000000020177
  53   0.000000010237
  54   0.000000014236
  55   0.000000012295
  56   0.000000006248
  57   0.000000008653
  58   0.000000004294
  59   0.000000004325
  60   0.000000005366
  61   0.000000004746
  62   0.000000002412
  63   0.000000003327
  64   0.000000002873
  65   0.000000002460
  66   0.000000001227
  67   0.000000001153
  68   0.000000001423
  69   0.000000001252
  70   0.000000001069
  71   0.000000000533
 CPU time [min]:    16.996                   Wall time [min]:     0.579
 
 Constructing local fitting domains...
 Local fitting domains are unchanged.
 
 First step of Coulomb + first step of exchange...
 Exchange contribution is evaluated for MOs 1 to 57.
   1% done.
  13% done.
  25% done.
  40% done.
  55% done.
  70% done.
  83% done.
 100% done.
 Fitting and assembly step of exchange...
 CPU time [min]:    18.450                   Wall time [min]:     0.620
 
 Second step of Coulomb...
   1% done.
  13% done.
  25% done.
  40% done.
  55% done.
  70% done.
  83% done.
 100% done.
 CPU time [min]:    18.531                   Wall time [min]:     0.622
 
 Calculating the exchange-correlation matrix...
                   0.4700*B88 [au]:    -51.318898218630
                   0.7300*LYP [au]:     -3.515355953269
 Exchange-correlation energy  [au]:    -54.834254171899
 CPU time [min]:    19.007                   Wall time [min]:     0.648
 
 Coulomb energy + HF exchange [au]:   1994.621736747571
 Gradient norm:      1.4104E-02
 DIIS is running in this iteration step.
 RMS of [F,P]:                                         0.00030131081332
 RMS of difference density:                            0.00087026539769
 Gap [au]:  0.08618207
 ALPHA OCC:  57
 BETA  OCC:  57
 
 ***KOHN-SHAM ENERGY IN STEP   9 IS         -1170.1391542081696571 [AU]
 
 Step comparison  Energy Drift [au]  DIIS error drift  Gradient drift
        8            1.9182E-03         3.1168E-04       1.1824E-02
 ======================================================================
 ITERATION STEP  10
 CPU time [min]:    19.017                   Wall time [min]:     0.648
 

 SCF control                  : diis
 Damping factor/level shift   : 0.000/0.000
 DIIS [start/end/frequency]   :   2 / 50 /  1

 Constructing Fock-matrix...
 
 Pipek-Mezey localization...
 Step  Convergence
   1  21.039063337149
   2   9.053414262442
   3  11.157968236578
   4   2.962514828344
   5   0.621481438799
   6   0.017937141004
   7   0.000195227703
   8   0.000035430049
   9   0.000011910763
  10   0.000016524878
  11   0.000015212918
  12   0.000007688557
  13   0.000011728117
  14   0.000005756830
  15   0.000009237274
  16   0.000008552558
  17   0.000007632513
  18   0.000006691428
  19   0.000005806917
  20   0.000002736856
  21   0.000002703145
  22   0.000002062882
  23   0.000001919980
  24   0.000002837804
  25   0.000002657806
  26   0.000001261205
  27   0.000001283554
  28   0.000001693033
  29   0.000001572371
  30   0.000000743505
  31   0.000000749314
  32   0.000000990664
  33   0.000000920671
  34   0.000000810840
  35   0.000000698375
  36   0.000000595910
  37   0.000000508409
  38   0.000000434140
  39   0.000000367112
  40   0.000000312920
  41   0.000000142639
  42   0.000000213005
  43   0.000000098665
  44   0.000000161349
  45   0.000000153144
  46   0.000000070494
  47   0.000000108338
  48   0.000000050350
  49   0.000000082611
  50   0.000000078117
  51   0.000000068802
  52   0.000000059208
  53   0.000000050601
  54   0.000000043198
  55   0.000000036483
  56   0.000000016548
  57   0.000000024745
  58   0.000000022959
  59   0.000000010583
  60   0.000000010785
  61   0.000000007865
  62   0.000000007425
  63   0.000000006415
  64   0.000000005825
  65   0.000000008962
  66   0.000000004267
  67   0.000000007000
  68   0.000000003299
  69   0.000000003576
  70   0.000000002637
  71   0.000000004261
  72   0.000000004076
  73   0.000000001867
  74   0.000000002875
  75   0.000000002697
  76   0.000000002353
  77   0.000000001079
  78   0.000000001079
  79   0.000000001430
  80   0.000000000675
  81   0.000000000724
  82   0.000000000977
  83   0.000000000914
  84   0.000000000424
  85   0.000000000428
  86   0.000000000569
  87   0.000000000532
  88   0.000000000468
  89   0.000000000214
  90   0.000000000320
  91   0.000000000297
  92   0.000000000261
  93   0.000000000225
  94   0.000000000192
  95   0.000000000163
  96   0.000000000074
 CPU time [min]:    19.151                   Wall time [min]:     0.652
 
 Constructing local fitting domains...
 Local fitting domains are unchanged.
 
 First step of Coulomb + first step of exchange...
 Exchange contribution is evaluated for MOs 1 to 57.
   1% done.
  13% done.
  25% done.
  40% done.
  55% done.
  70% done.
  83% done.
 100% done.
 Fitting and assembly step of exchange...
 CPU time [min]:    20.616                   Wall time [min]:     0.693
 
 Second step of Coulomb...
   1% done.
  13% done.
  25% done.
  40% done.
  55% done.
  70% done.
  83% done.
 100% done.
 CPU time [min]:    20.697                   Wall time [min]:     0.695
 
 Calculating the exchange-correlation matrix...
                   0.4700*B88 [au]:    -51.330878035206
                   0.7300*LYP [au]:     -3.514932082126
 Exchange-correlation energy  [au]:    -54.845810117332
 CPU time [min]:    21.173                   Wall time [min]:     0.721
 
 Coulomb energy + HF exchange [au]:   1994.473350640621
 Gradient norm:      6.0715E-03
 DIIS is running in this iteration step.
 RMS of [F,P]:                                         0.00012194975899
 RMS of difference density:                            0.00015476946167
 Gap [au]:  0.08603764
 ALPHA OCC:  57
 BETA  OCC:  57
 
 ***KOHN-SHAM ENERGY IN STEP  10 IS         -1170.1398685573481089 [AU]
 
 Step comparison  Energy Drift [au]  DIIS error drift  Gradient drift
        9            7.1435E-04         1.7936E-04       8.0325E-03
 ======================================================================
 ITERATION STEP  11
 CPU time [min]:    21.183                   Wall time [min]:     0.721
 

 SCF control                  : diis
 Damping factor/level shift   : 0.000/0.000
 DIIS [start/end/frequency]   :   2 / 50 /  1

 Constructing Fock-matrix...
 
 Pipek-Mezey localization...
 Step  Convergence
   1  19.896510124471
   2   6.821929721263
   3  13.822672148340
   4   5.450202018625
   5   1.786588859541
   6   0.406031245667
   7   0.004749138183
   8   0.000083655679
   9   0.000003886498
  10   0.000000442145
  11   0.000000129914
  12   0.000000198560
  13   0.000000095086
  14   0.000000158672
  15   0.000000158553
  16   0.000000140667
  17   0.000000123815
  18   0.000000107240
  19   0.000000092646
  20   0.000000080117
  21   0.000000069355
  22   0.000000059422
  23   0.000000051436
  24   0.000000023131
  25   0.000000034680
  26   0.000000016291
  27   0.000000027197
  28   0.000000012907
  29   0.000000021734
  30   0.000000010370
  31   0.000000011461
  32   0.000000008365
  33   0.000000014053
  34   0.000000013903
  35   0.000000012410
  36   0.000000005613
  37   0.000000008551
  38   0.000000004016
  39   0.000000006691
  40   0.000000003172
  41   0.000000005332
  42   0.000000005259
  43   0.000000004688
  44   0.000000002116
  45   0.000000003243
  46   0.000000003120
  47   0.000000002775
  48   0.000000002442
  49   0.000000001084
  50   0.000000001100
  51   0.000000000787
  52   0.000000001304
  53   0.000000001293
  54   0.000000000591
  55   0.000000000920
  56   0.000000000428
  57   0.000000000474
  58   0.000000000348
  59   0.000000000581
  60   0.000000000573
  61   0.000000000261
  62   0.000000000410
  63   0.000000000396
  64   0.000000000350
  65   0.000000000159
  66   0.000000000161
  67   0.000000000219
  68   0.000000000210
  69   0.000000000096
  70   0.000000000148
  71   0.000000000143
  72   0.000000000064
  73   0.000000000067
  74   0.000000000049
  75   0.000000000081
  76   0.000000000080
  77   0.000000000071
  78   0.000000000032
  79   0.000000000033
  80   0.000000000044
  81   0.000000000021
  82   0.000000000023
  83   0.000000000031
  84   0.000000000015
  85   0.000000000016
  86   0.000000000022
  87   0.000000000021
  88   0.000000000019
  89   0.000000000017
  90   0.000000000007
  91   0.000000000011
  92   0.000000000011
  93   0.000000000010
  94   0.000000000004
  95   0.000000000007
  96   0.000000000006
  97   0.000000000006
  98   0.000000000005
  99   0.000000000002
 100   0.000000000002
 101   0.000000000003
 102   0.000000000003
 103   0.000000000003
 104   0.000000000001
 105   0.000000000002
 106   0.000000000002
 107   0.000000000002
 108   0.000000000001
 109   0.000000000001
 110   0.000000000001
 111   0.000000000001
 CPU time [min]:    21.335                   Wall time [min]:     0.725
 
 Constructing local fitting domains...
 Local fitting domains are unchanged.
 
 First step of Coulomb + first step of exchange...
 Exchange contribution is evaluated for MOs 1 to 57.
   1% done.
  13% done.
  25% done.
  40% done.
  55% done.
  70% done.
  83% done.
 100% done.
 Fitting and assembly step of exchange...
 CPU time [min]:    22.790                   Wall time [min]:     0.766
 
 Second step of Coulomb...
   1% done.
  13% done.
  25% done.
  40% done.
  55% done.
  70% done.
  83% done.
 100% done.
 CPU time [min]:    22.870                   Wall time [min]:     0.768
 
 Calculating the exchange-correlation matrix...
                   0.4700*B88 [au]:    -51.334901757293
                   0.7300*LYP [au]:     -3.514955741999
 Exchange-correlation energy  [au]:    -54.849857499292
 CPU time [min]:    23.347                   Wall time [min]:     0.793
 
 Coulomb energy + HF exchange [au]:   1994.536786964702
 Gradient norm:      1.3109E-03
 DIIS is running in this iteration step.
 RMS of [F,P]:                                         0.00003370197161
 RMS of difference density:                            0.00010718850435
 Gap [au]:  0.08594122
 ALPHA OCC:  57
 BETA  OCC:  57
 
 ***KOHN-SHAM ENERGY IN STEP  11 IS         -1170.1399244487088254 [AU]
 
 Step comparison  Energy Drift [au]  DIIS error drift  Gradient drift
       10            5.5891E-05         8.8248E-05       4.7606E-03
 ======================================================================
 ITERATION STEP  12
 CPU time [min]:    23.357                   Wall time [min]:     0.794
 

 SCF control                  : diis
 Damping factor/level shift   : 0.000/0.000
 DIIS [start/end/frequency]   :   2 / 50 /  1

 Constructing Fock-matrix...
 
 Pipek-Mezey localization...
 Step  Convergence
   1  20.768839383241
   2   8.330141111124
   3  11.427758603403
   4   4.753043834683
   5   1.012251524208
   6   0.074284493996
   7   0.004079944929
   8   0.000333299786
   9   0.000027272185
  10   0.000002436428
  11   0.000000331706
  12   0.000000079528
  13   0.000000069382
  14   0.000000096456
  15   0.000000093460
  16   0.000000083974
  17   0.000000073868
  18   0.000000064468
  19   0.000000056254
  20   0.000000048512
  21   0.000000042244
  22   0.000000036741
  23   0.000000031938
  24   0.000000027796
  25   0.000000024271
  26   0.000000010759
  27   0.000000016368
  28   0.000000007707
  29   0.000000012856
  30   0.000000006188
  31   0.000000010465
  32   0.000000005023
  33   0.000000008418
  34   0.000000008514
  35   0.000000007615
  36   0.000000006738
  37   0.000000005874
  38   0.000000002630
  39   0.000000003966
  40   0.000000001875
  41   0.000000003145
  42   0.000000001502
  43   0.000000001680
  44   0.000000001220
  45   0.000000001210
  46   0.000000001927
  47   0.000000000919
  48   0.000000001535
  49   0.000000000729
  50   0.000000000815
  51   0.000000000589
  52   0.000000000589
  53   0.000000000503
  54   0.000000000470
  55   0.000000000766
  56   0.000000000367
  57   0.000000000614
  58   0.000000000294
  59   0.000000000327
  60   0.000000000237
  61   0.000000000235
  62   0.000000000201
  63   0.000000000337
  64   0.000000000161
  65   0.000000000272
  66   0.000000000130
  67   0.000000000218
  68   0.000000000219
  69   0.000000000196
  70   0.000000000089
  71   0.000000000136
  72   0.000000000134
  73   0.000000000060
  74   0.000000000095
  75   0.000000000045
  76   0.000000000075
  77   0.000000000036
  78   0.000000000061
  79   0.000000000029
  80   0.000000000049
  81   0.000000000023
  82   0.000000000040
  83   0.000000000040
  84   0.000000000018
  85   0.000000000019
  86   0.000000000013
  87   0.000000000013
  88   0.000000000021
  89   0.000000000010
  90   0.000000000017
  91   0.000000000008
  92   0.000000000009
  93   0.000000000013
  94   0.000000000006
  95   0.000000000006
  96   0.000000000009
  97   0.000000000009
  98   0.000000000004
  99   0.000000000006
 100   0.000000000006
 101   0.000000000005
 102   0.000000000002
 103   0.000000000004
 104   0.000000000002
 105   0.000000000002
 106   0.000000000003
 107   0.000000000003
 108   0.000000000001
 109   0.000000000002
 110   0.000000000002
 111   0.000000000002
 112   0.000000000001
 CPU time [min]:    23.509                   Wall time [min]:     0.798
 
 Constructing local fitting domains...
 Local fitting domains are unchanged.
 
 First step of Coulomb + first step of exchange...
 Exchange contribution is evaluated for MOs 1 to 57.
   1% done.
  13% done.
  25% done.
  40% done.
  55% done.
  70% done.
  83% done.
 100% done.
 Fitting and assembly step of exchange...
 CPU time [min]:    24.963                   Wall time [min]:     0.839
 
 Second step of Coulomb...
   1% done.
  13% done.
  25% done.
  40% done.
  55% done.
  70% done.
  83% done.
 100% done.
 CPU time [min]:    25.044                   Wall time [min]:     0.841
 
 Calculating the exchange-correlation matrix...
                   0.4700*B88 [au]:    -51.336316173163
                   0.7300*LYP [au]:     -3.514922034306
 Exchange-correlation energy  [au]:    -54.851238207469
 CPU time [min]:    25.520                   Wall time [min]:     0.866
 
 Coulomb energy + HF exchange [au]:   1994.526836473281
 Gradient norm:      3.2142E-04
 DIIS is running in this iteration step.
 RMS of [F,P]:                                         0.00000666822316
 RMS of difference density:                            0.00003095843993
 Gap [au]:  0.08594414
 ALPHA OCC:  57
 BETA  OCC:  57
 
 ***KOHN-SHAM ENERGY IN STEP  12 IS         -1170.1399359516635741 [AU]
 
 Step comparison  Energy Drift [au]  DIIS error drift  Gradient drift
       11            1.1503E-05         2.7034E-05       9.8948E-04
 ======================================================================
 ITERATION STEP  13
 CPU time [min]:    25.530                   Wall time [min]:     0.867
 

 SCF control                  : diis
 Damping factor/level shift   : 0.000/0.000
 DIIS [start/end/frequency]   :   2 / 50 /  1

 Constructing Fock-matrix...
 
 Pipek-Mezey localization...
 Step  Convergence
   1  21.564830619610
   2   9.807442560766
   3  15.391153486742
   4   5.779691784320
   5   1.170215953459
   6   0.044086819300
   7   0.000602231232
   8   0.000152713405
   9   0.000008065430
  10   0.000001344911
  11   0.000000130274
  12   0.000000018419
  13   0.000000005244
  14   0.000000005295
  15   0.000000005010
  16   0.000000004522
  17   0.000000003982
  18   0.000000001757
  19   0.000000001799
  20   0.000000002507
  21   0.000000001172
  22   0.000000001962
  23   0.000000001995
  24   0.000000001781
  25   0.000000000803
  26   0.000000001239
  27   0.000000001239
  28   0.000000000553
  29   0.000000000880
  30   0.000000000419
  31   0.000000000467
  32   0.000000000667
  33   0.000000000312
  34   0.000000000524
  35   0.000000000251
  36   0.000000000279
  37   0.000000000201
  38   0.000000000351
  39   0.000000000358
  40   0.000000000321
  41   0.000000000145
  42   0.000000000224
  43   0.000000000223
  44   0.000000000200
  45   0.000000000177
  46   0.000000000155
  47   0.000000000136
  48   0.000000000060
  49   0.000000000061
  50   0.000000000044
  51   0.000000000043
  52   0.000000000069
  53   0.000000000033
  54   0.000000000056
  55   0.000000000057
  56   0.000000000025
  57   0.000000000027
  58   0.000000000037
  59   0.000000000018
  60   0.000000000019
  61   0.000000000027
  62   0.000000000027
  63   0.000000000012
  64   0.000000000013
  65   0.000000000009
  66   0.000000000009
  67   0.000000000008
  68   0.000000000007
  69   0.000000000006
  70   0.000000000011
  71   0.000000000011
  72   0.000000000010
  73   0.000000000004
  74   0.000000000005
  75   0.000000000003
  76   0.000000000005
  77   0.000000000003
  78   0.000000000004
  79   0.000000000005
  80   0.000000000004
  81   0.000000000004
  82   0.000000000003
  83   0.000000000003
  84   0.000000000001
  85   0.000000000002
  86   0.000000000002
  87   0.000000000001
 CPU time [min]:    25.653                   Wall time [min]:     0.870
 
 Constructing local fitting domains...
 Local fitting domains are unchanged.
 
 First step of Coulomb + first step of exchange...
 Exchange contribution is evaluated for MOs 1 to 57.
   1% done.
  13% done.
  25% done.
  40% done.
  55% done.
  70% done.
  83% done.
 100% done.
 Fitting and assembly step of exchange...
 CPU time [min]:    27.109                   Wall time [min]:     0.911
 
 Second step of Coulomb...
   1% done.
  13% done.
  25% done.
  40% done.
  55% done.
  70% done.
  83% done.
 100% done.
 CPU time [min]:    27.190                   Wall time [min]:     0.913
 
 Calculating the exchange-correlation matrix...
                   0.4700*B88 [au]:    -51.336252880917
                   0.7300*LYP [au]:     -3.514904894569
 Exchange-correlation energy  [au]:    -54.851157775486
 CPU time [min]:    27.665                   Wall time [min]:     0.939
 
 Coulomb energy + HF exchange [au]:   1994.515691586241
 Gradient norm:      1.1412E-04
 DIIS is running in this iteration step.
 RMS of [F,P]:                                         0.00000291873914
 RMS of difference density:                            0.00000945692511
 Gap [au]:  0.08595760
 ALPHA OCC:  57
 BETA  OCC:  57
 
 ***KOHN-SHAM ENERGY IN STEP  13 IS         -1170.1399368268494072 [AU]
 
 Step comparison  Energy Drift [au]  DIIS error drift  Gradient drift
       12            8.7519E-07         3.7495E-06       2.0730E-04
 ======================================================================
 ITERATION STEP  14
 CPU time [min]:    27.676                   Wall time [min]:     0.939
 

 SCF control                  : diis
 Damping factor/level shift   : 0.000/0.000
 DIIS [start/end/frequency]   :   2 / 50 /  1

 Constructing Fock-matrix...
 
 Pipek-Mezey localization...
 Step  Convergence
   1  23.034614025110
   2   8.588119311334
   3  13.671452509560
   4   6.211633294074
   5   2.028416961202
   6   0.495587627551
   7   0.159759818312
   8   0.000544522144
   9   0.000020058498
  10   0.000004077851
  11   0.000000709075
  12   0.000000215310
  13   0.000000247611
  14   0.000000242551
  15   0.000000108164
  16   0.000000114220
  17   0.000000160222
  18   0.000000156970
  19   0.000000142031
  20   0.000000124816
  21   0.000000109648
  22   0.000000096249
  23   0.000000042318
  24   0.000000043224
  25   0.000000030533
  26   0.000000030523
  27   0.000000049150
  28   0.000000023441
  29   0.000000039500
  30   0.000000039975
  31   0.000000017988
  32   0.000000028560
  33   0.000000013543
  34   0.000000015041
  35   0.000000010875
  36   0.000000018834
  37   0.000000019150
  38   0.000000008639
  39   0.000000013718
  40   0.000000006464
  41   0.000000010925
  42   0.000000011079
  43   0.000000004968
  44   0.000000005243
  45   0.000000007300
  46   0.000000003453
  47   0.000000005736
  48   0.000000002725
  49   0.000000004619
  50   0.000000004711
  51   0.000000004218
  52   0.000000001915
  53   0.000000001936
  54   0.000000002695
  55   0.000000001264
  56   0.000000002115
  57   0.000000002123
  58   0.000000000951
  59   0.000000001512
  60   0.000000000718
  61   0.000000001211
  62   0.000000001227
  63   0.000000001097
  64   0.000000000974
  65   0.000000000434
  66   0.000000000667
  67   0.000000000313
  68   0.000000000528
  69   0.000000000255
  70   0.000000000429
  71   0.000000000436
  72   0.000000000196
  73   0.000000000312
  74   0.000000000310
  75   0.000000000278
  76   0.000000000245
  77   0.000000000215
  78   0.000000000095
  79   0.000000000096
  80   0.000000000135
  81   0.000000000063
  82   0.000000000106
  83   0.000000000106
  84   0.000000000047
  85   0.000000000050
  86   0.000000000036
  87   0.000000000035
  88   0.000000000057
  89   0.000000000027
  90   0.000000000045
  91   0.000000000022
  92   0.000000000024
  93   0.000000000035
  94   0.000000000034
  95   0.000000000030
  96   0.000000000013
  97   0.000000000014
  98   0.000000000019
  99   0.000000000009
 100   0.000000000010
 101   0.000000000014
 102   0.000000000014
 103   0.000000000012
 104   0.000000000005
 105   0.000000000006
 106   0.000000000008
 107   0.000000000008
 108   0.000000000007
 109   0.000000000006
 110   0.000000000005
 111   0.000000000002
 112   0.000000000002
 113   0.000000000003
 114   0.000000000003
 115   0.000000000003
 116   0.000000000001
 117   0.000000000002
 118   0.000000000002
 119   0.000000000002
 120   0.000000000001
 CPU time [min]:    27.839                   Wall time [min]:     0.943
 
 Constructing local fitting domains...
 Local fitting domains are unchanged.
 
 First step of Coulomb + first step of exchange...
 Exchange contribution is evaluated for MOs 1 to 57.
   1% done.
  13% done.
  25% done.
  40% done.
  55% done.
  70% done.
  83% done.
 100% done.
 Fitting and assembly step of exchange...
 CPU time [min]:    29.294                   Wall time [min]:     0.984
 
 Second step of Coulomb...
   1% done.
  13% done.
  25% done.
  40% done.
  55% done.
  70% done.
  83% done.
 100% done.
 CPU time [min]:    29.375                   Wall time [min]:     0.986
 
 Calculating the exchange-correlation matrix...
                   0.4700*B88 [au]:    -51.336226672873
                   0.7300*LYP [au]:     -3.514909589907
 Exchange-correlation energy  [au]:    -54.851136262780
 CPU time [min]:    29.850                   Wall time [min]:     1.012
 
 Coulomb energy + HF exchange [au]:   1994.518667642495
 Gradient norm:      6.9353E-05
 DIIS is running in this iteration step.
 RMS of [F,P]:                                         0.00000204189946
 RMS of difference density:                            0.00000196044044
 Gap [au]:  0.08595933
 ALPHA OCC:  57
 BETA  OCC:  57
 
 ***KOHN-SHAM ENERGY IN STEP  14 IS         -1170.1399369365749408 [AU]
 
 Step comparison  Energy Drift [au]  DIIS error drift  Gradient drift
       13            1.0973E-07         8.7684E-07       4.4765E-05
 ======================================================================
 ITERATION STEP  15
 CPU time [min]:    29.862                   Wall time [min]:     1.012
 

 SCF control                  : diis
 Damping factor/level shift   : 0.000/0.000
 DIIS [start/end/frequency]   :   2 / 50 /  1

 Constructing Fock-matrix...
 
 Pipek-Mezey localization...
 Step  Convergence
   1  24.024989622382
   2  10.028892130862
   3  12.789556326040
   4   4.390320523082
   5   1.544131776773
   6   0.358065944054
   7   0.006752502028
   8   0.000073175963
   9   0.000005845400
  10   0.000000666962
  11   0.000000396037
  12   0.000000267363
  13   0.000000445252
  14   0.000000443477
  15   0.000000398824
  16   0.000000180853
  17   0.000000276083
  18   0.000000128973
  19   0.000000144015
  20   0.000000103927
  21   0.000000103502
  22   0.000000164918
  23   0.000000163383
  24   0.000000074080
  25   0.000000116696
  26   0.000000114740
  27   0.000000051579
  28   0.000000082173
  29   0.000000081139
  30   0.000000036209
  31   0.000000057777
  32   0.000000057055
  33   0.000000051155
  34   0.000000045396
  35   0.000000020357
  36   0.000000030966
  37   0.000000030567
  38   0.000000013722
  39   0.000000021863
  40   0.000000021656
  41   0.000000009757
  42   0.000000010177
  43   0.000000014170
  44   0.000000013868
  45   0.000000012503
  46   0.000000005557
  47   0.000000005696
  48   0.000000004050
  49   0.000000006932
  50   0.000000007021
  51   0.000000006339
  52   0.000000005625
  53   0.000000002477
  54   0.000000003818
  55   0.000000003813
[...]
 
 MO:    18
 Number of atoms in domain:       6
 Number of atomic orbitals:     732
 Number of atoms for local DF:    6
 Number of fitting functions:  2166 (100.00%)
 Warning: drop high-lying PAOs                     6
 Number of occupied orbitals:    23
 Number of virtual  orbitals:   669
 Number of Cholesky vectors:     11
 MP2 energy in ED [au]:          -0.081686324675
 CPU time [min]:   125.571                   Wall time [min]:     3.515
 
 MO:    19
 Number of atoms in domain:       6
 Number of atomic orbitals:     732
 Number of atoms for local DF:    6
 Number of fitting functions:  2166 (100.00%)
 Warning: drop high-lying PAOs                     6
 Number of occupied orbitals:    27
 Number of virtual  orbitals:   669
 Number of Cholesky vectors:     11
 MP2 energy in ED [au]:          -0.081505732406
 CPU time [min]:   132.199                   Wall time [min]:     3.700
 
 MO:    20
 Number of atoms in domain:       6
 Number of atomic orbitals:     732
 Number of atoms for local DF:    6
 Number of fitting functions:  2166 (100.00%)
 Warning: drop high-lying PAOs                     6
 Number of occupied orbitals:    27
 Number of virtual  orbitals:   669
 Number of Cholesky vectors:     11
 MP2 energy in ED [au]:          -0.081506358471
 CPU time [min]:   138.834                   Wall time [min]:     3.885
 
 MO:    21
 Number of atoms in domain:       6
 Number of atomic orbitals:     732
 Number of atoms for local DF:    6
 Number of fitting functions:  2166 (100.00%)
 Warning: drop high-lying PAOs                     6
 Number of occupied orbitals:    27
 Number of virtual  orbitals:   669
 Number of Cholesky vectors:     11
 MP2 energy in ED [au]:          -0.081763455952
 CPU time [min]:   145.492                   Wall time [min]:     4.070
 
 MO:    22
 Number of atoms in domain:       6
 Number of atomic orbitals:     732
 Number of atoms for local DF:    6
 Number of fitting functions:  2166 (100.00%)
 Warning: drop high-lying PAOs                     6
 Number of occupied orbitals:    27
 Number of virtual  orbitals:   669
 Number of Cholesky vectors:     11
 MP2 energy in ED [au]:          -0.081762713325
 CPU time [min]:   152.107                   Wall time [min]:     4.255
 
 MO:    23
 Number of atoms in domain:       6
 Number of atomic orbitals:     732
 Number of atoms for local DF:    6
 Number of fitting functions:  2166 (100.00%)
 Warning: drop high-lying PAOs                     6
 Number of occupied orbitals:    31
 Number of virtual  orbitals:   669
 Number of Cholesky vectors:     11
 MP2 energy in ED [au]:          -0.081581931684
 CPU time [min]:   159.367                   Wall time [min]:     4.457
 
 MO:    24
 Number of atoms in domain:       6
 Number of atomic orbitals:     732
 Number of atoms for local DF:    6
 Number of fitting functions:  2166 (100.00%)
 Warning: drop high-lying PAOs                     6
 Number of occupied orbitals:    31
 Number of virtual  orbitals:   669
 Number of Cholesky vectors:     11
 MP2 energy in ED [au]:          -0.081581303971
 CPU time [min]:   166.645                   Wall time [min]:     4.660
 
 MO:    25
 Number of atoms in domain:       6
 Number of atomic orbitals:     732
 Number of atoms for local DF:    6
 Number of fitting functions:  2166 (100.00%)
 Warning: drop high-lying PAOs                     6
 Number of occupied orbitals:    40
 Number of virtual  orbitals:   669
 Number of Cholesky vectors:     11
 MP2 energy in ED [au]:          -0.173359417352
 CPU time [min]:   175.415                   Wall time [min]:     4.904
 
 MO:    26
 Number of atoms in domain:       6
 Number of atomic orbitals:     732
 Number of atoms for local DF:    6
 Number of fitting functions:  2166 (100.00%)
 Warning: drop high-lying PAOs                     6
 Number of occupied orbitals:    39
 Number of virtual  orbitals:   669
 Number of Cholesky vectors:     11
 MP2 energy in ED [au]:          -0.173467406848
 CPU time [min]:   184.076                   Wall time [min]:     5.145
 
 MO:    27
 Number of atoms in domain:       6
 Number of atomic orbitals:     732
 Number of atoms for local DF:    6
 Number of fitting functions:  2166 (100.00%)
 Warning: drop high-lying PAOs                     6
 Number of occupied orbitals:    43
 Number of virtual  orbitals:   669
 Number of Cholesky vectors:     11
 MP2 energy in ED [au]:          -0.177354701753
 CPU time [min]:   193.377                   Wall time [min]:     5.405
 
 MO:    28
 Number of atoms in domain:       6
 Number of atomic orbitals:     732
 Number of atoms for local DF:    6
 Number of fitting functions:  2166 (100.00%)
 Warning: drop high-lying PAOs                     6
 Number of occupied orbitals:    41
 Number of virtual  orbitals:   669
 Number of Cholesky vectors:     11
 MP2 energy in ED [au]:          -0.174717972130
 CPU time [min]:   202.282                   Wall time [min]:     5.653
 
 MO:    29
 Number of atoms in domain:       6
 Number of atomic orbitals:     732
 Number of atoms for local DF:    6
 Number of fitting functions:  2166 (100.00%)
 Warning: drop high-lying PAOs                     6
 Number of occupied orbitals:    40
 Number of virtual  orbitals:   669
 Number of Cholesky vectors:     11
 MP2 energy in ED [au]:          -0.174058912945
 CPU time [min]:   211.014                   Wall time [min]:     5.896
 
 MO:    30
 Number of atoms in domain:       6
 Number of atomic orbitals:     732
 Number of atoms for local DF:    6
 Number of fitting functions:  2166 (100.00%)
 Warning: drop high-lying PAOs                     6
 Number of occupied orbitals:    41
 Number of virtual  orbitals:   669
 Number of Cholesky vectors:     11
 MP2 energy in ED [au]:          -0.174718915433
 CPU time [min]:   219.933                   Wall time [min]:     6.145
 
 MO:    31
 Number of atoms in domain:       6
 Number of atomic orbitals:     732
 Number of atoms for local DF:    6
 Number of fitting functions:  2166 (100.00%)
 Warning: drop high-lying PAOs                     6
 Number of occupied orbitals:    54
 Number of virtual  orbitals:   669
 Number of Cholesky vectors:     10
 MP2 energy in ED [au]:          -0.182806296195
 CPU time [min]:   230.981                   Wall time [min]:     6.452
 
 MO:    32
 Number of atoms in domain:       6
 Number of atomic orbitals:     732
 Number of atoms for local DF:    6
 Number of fitting functions:  2166 (100.00%)
 Warning: drop high-lying PAOs                     6
 Number of occupied orbitals:    54
 Number of virtual  orbitals:   669
 Number of Cholesky vectors:     10
 MP2 energy in ED [au]:          -0.185188771053
 CPU time [min]:   242.012                   Wall time [min]:     6.760
 
 MO:    33
 Number of atoms in domain:       6
 Number of atomic orbitals:     732
 Number of atoms for local DF:    6
 Number of fitting functions:  2166 (100.00%)
 Warning: drop high-lying PAOs                     6
 Number of occupied orbitals:    53
 Number of virtual  orbitals:   669
 Number of Cholesky vectors:     11
 MP2 energy in ED [au]:          -0.177985992113
 CPU time [min]:   253.011                   Wall time [min]:     7.066
 
 MO:    34
 Number of atoms in domain:       6
 Number of atomic orbitals:     732
 Number of atoms for local DF:    6
 Number of fitting functions:  2166 (100.00%)
 Warning: drop high-lying PAOs                     6
 Number of occupied orbitals:    53
 Number of virtual  orbitals:   669
 Number of Cholesky vectors:     11
 MP2 energy in ED [au]:          -0.177924858534
 CPU time [min]:   264.027                   Wall time [min]:     7.373
 
 MO:    35
 Number of atoms in domain:       6
 Number of atomic orbitals:     732
 Number of atoms for local DF:    6
 Number of fitting functions:  2166 (100.00%)
 Warning: drop high-lying PAOs                     6
 Number of occupied orbitals:    47
 Number of virtual  orbitals:   669
 Number of Cholesky vectors:     11
 MP2 energy in ED [au]:          -0.176903608254
 CPU time [min]:   273.993                   Wall time [min]:     7.651
 
 MO:    36
 Number of atoms in domain:       6
 Number of atomic orbitals:     732
 Number of atoms for local DF:    6
 Number of fitting functions:  2166 (100.00%)
 Warning: drop high-lying PAOs                     6
 Number of occupied orbitals:    49
 Number of virtual  orbitals:   669
 Number of Cholesky vectors:     11
 MP2 energy in ED [au]:          -0.176897577132
 CPU time [min]:   284.247                   Wall time [min]:     7.936
 
 MO:    37
 Number of atoms in domain:       6
 Number of atomic orbitals:     732
 Number of atoms for local DF:    6
 Number of fitting functions:  2166 (100.00%)
 Warning: drop high-lying PAOs                     6
 Number of occupied orbitals:    46
 Number of virtual  orbitals:   669
 Number of Cholesky vectors:     10
 MP2 energy in ED [au]:          -0.175917231665
 CPU time [min]:   293.913                   Wall time [min]:     8.206
 
 MO:    38
 Number of atoms in domain:       6
 Number of atomic orbitals:     732
 Number of atoms for local DF:    6
 Number of fitting functions:  2166 (100.00%)
 Warning: drop high-lying PAOs                     6
 Number of occupied orbitals:    46
 Number of virtual  orbitals:   669
 Number of Cholesky vectors:     10
 MP2 energy in ED [au]:          -0.176009019377
 CPU time [min]:   303.591                   Wall time [min]:     8.475
 
 MO:    39
 Number of atoms in domain:       6
 Number of atomic orbitals:     732
 Number of atoms for local DF:    6
 Number of fitting functions:  2166 (100.00%)
 Warning: drop high-lying PAOs                     6
 Number of occupied orbitals:    48
 Number of virtual  orbitals:   669
 Number of Cholesky vectors:     11
 MP2 energy in ED [au]:          -0.176981502494
 CPU time [min]:   313.632                   Wall time [min]:     8.755
 
 MO:    40
 Number of atoms in domain:       6
 Number of atomic orbitals:     732
 Number of atoms for local DF:    6
 Number of fitting functions:  2166 (100.00%)
 Warning: drop high-lying PAOs                     6
 Number of occupied orbitals:    49
 Number of virtual  orbitals:   669
 Number of Cholesky vectors:     11
 MP2 energy in ED [au]:          -0.178601910093
 CPU time [min]:   323.905                   Wall time [min]:     9.041
 
 MO:    41
 Number of atoms in domain:       6
 Number of atomic orbitals:     732
 Number of atoms for local DF:    6
 Number of fitting functions:  2166 (100.00%)
 Warning: drop high-lying PAOs                     6
 Number of occupied orbitals:    40
 Number of virtual  orbitals:   669
 Number of Cholesky vectors:     11
 MP2 energy in ED [au]:          -0.173469461087
 CPU time [min]:   332.635                   Wall time [min]:     9.285
 
 MO:    42
 Number of atoms in domain:       6
 Number of atomic orbitals:     732
 Number of atoms for local DF:    6
 Number of fitting functions:  2166 (100.00%)
 Warning: drop high-lying PAOs                     6
 Number of occupied orbitals:    40
 Number of virtual  orbitals:   669
 Number of Cholesky vectors:     11
 MP2 energy in ED [au]:          -0.173359974693
 CPU time [min]:   341.371                   Wall time [min]:     9.528
 
 MO:    43
 Number of atoms in domain:       6
 Number of atomic orbitals:     732
 Number of atoms for local DF:    6
 Number of fitting functions:  2166 (100.00%)
 Warning: drop high-lying PAOs                     6
 Number of occupied orbitals:    57
 Number of virtual  orbitals:   669
 Number of Cholesky vectors:     11
 MP2 energy in ED [au]:          -0.182351098190
 CPU time [min]:   353.004                   Wall time [min]:     9.852
 
 MO:    44
 Number of atoms in domain:       6
 Number of atomic orbitals:     732
 Number of atoms for local DF:    6
 Number of fitting functions:  2166 (100.00%)
 Warning: drop high-lying PAOs                     6
 Number of occupied orbitals:    56
 Number of virtual  orbitals:   669
 Number of Cholesky vectors:     10
 MP2 energy in ED [au]:          -0.181888021491
 CPU time [min]:   364.309                   Wall time [min]:    10.167
 
 MO:    45
 Number of atoms in domain:       6
 Number of atomic orbitals:     732
 Number of atoms for local DF:    6
 Number of fitting functions:  2166 (100.00%)
 Warning: drop high-lying PAOs                     6
 Number of occupied orbitals:    40
 Number of virtual  orbitals:   669
 Number of Cholesky vectors:     11
 MP2 energy in ED [au]:          -0.176558887654
 CPU time [min]:   373.055                   Wall time [min]:    10.411
 
 MO:    46
 Number of atoms in domain:       6
 Number of atomic orbitals:     732
 Number of atoms for local DF:    6
 Number of fitting functions:  2166 (100.00%)
 Warning: drop high-lying PAOs                     6
 Number of occupied orbitals:    41
 Number of virtual  orbitals:   669
 Number of Cholesky vectors:     11
 MP2 energy in ED [au]:          -0.177945841704
 CPU time [min]:   381.939                   Wall time [min]:    10.658
 
 MO:    47
 Number of atoms in domain:       6
 Number of atomic orbitals:     732
 Number of atoms for local DF:    6
 Number of fitting functions:  2166 (100.00%)
 Warning: drop high-lying PAOs                     6
 Number of occupied orbitals:    49
 Number of virtual  orbitals:   669
 Number of Cholesky vectors:     11
 MP2 energy in ED [au]:          -0.185239886164
 CPU time [min]:   392.228                   Wall time [min]:    10.945
 
 MO:    48
 Number of atoms in domain:       6
 Number of atomic orbitals:     732
 Number of atoms for local DF:    6
 Number of fitting functions:  2166 (100.00%)
 Warning: drop high-lying PAOs                     6
 Number of occupied orbitals:    49
 Number of virtual  orbitals:   669
 Number of Cholesky vectors:     11
 MP2 energy in ED [au]:          -0.186188759251
 CPU time [min]:   402.485                   Wall time [min]:    11.231
 
 MO:    49
 Number of atoms in domain:       6
 Number of atomic orbitals:     732
 Number of atoms for local DF:    6
 Number of fitting functions:  2166 (100.00%)
 Warning: drop high-lying PAOs                     6
 Number of occupied orbitals:    53
 Number of virtual  orbitals:   669
 Number of Cholesky vectors:     11
 MP2 energy in ED [au]:          -0.178957715385
 CPU time [min]:   413.501                   Wall time [min]:    11.538
 
 MO:    50
 Number of atoms in domain:       6
 Number of atomic orbitals:     732
 Number of atoms for local DF:    6
 Number of fitting functions:  2166 (100.00%)
 Warning: drop high-lying PAOs                     6
 Number of occupied orbitals:    53
 Number of virtual  orbitals:   669
 Number of Cholesky vectors:     11
 MP2 energy in ED [au]:          -0.180237189400
 CPU time [min]:   424.482                   Wall time [min]:    11.844
 
 MO:    51
 Number of atoms in domain:       6
 Number of atomic orbitals:     732
 Number of atoms for local DF:    6
 Number of fitting functions:  2166 (100.00%)
 Warning: drop high-lying PAOs                     6
 Number of occupied orbitals:    49
 Number of virtual  orbitals:   669
 Number of Cholesky vectors:     11
 MP2 energy in ED [au]:          -0.179736952192
 CPU time [min]:   434.749                   Wall time [min]:    12.130
 
 MO:    52
 Number of atoms in domain:       6
 Number of atomic orbitals:     732
 Number of atoms for local DF:    6
 Number of fitting functions:  2166 (100.00%)
 Warning: drop high-lying PAOs                     6
 Number of occupied orbitals:    49
 Number of virtual  orbitals:   669
 Number of Cholesky vectors:     11
 MP2 energy in ED [au]:          -0.181600060335
 CPU time [min]:   445.038                   Wall time [min]:    12.416
 
 MO:    53
 Number of atoms in domain:       6
 Number of atomic orbitals:     732
 Number of atoms for local DF:    6
 Number of fitting functions:  2166 (100.00%)
 Warning: drop high-lying PAOs                     6
 Number of occupied orbitals:    53
 Number of virtual  orbitals:   669
 Number of Cholesky vectors:     11
 MP2 energy in ED [au]:          -0.180225641719
 CPU time [min]:   456.030                   Wall time [min]:    12.723
 
 MO:    54
 Number of atoms in domain:       6
 Number of atomic orbitals:     732
 Number of atoms for local DF:    6
 Number of fitting functions:  2166 (100.00%)
 Warning: drop high-lying PAOs                     6
 Number of occupied orbitals:    53
 Number of virtual  orbitals:   669
 Number of Cholesky vectors:     11
 MP2 energy in ED [au]:          -0.180261811383
 CPU time [min]:   467.064                   Wall time [min]:    13.030
 
 MO:    55
 Number of atoms in domain:       6
 Number of atomic orbitals:     732
 Number of atoms for local DF:    6
 Number of fitting functions:  2166 (100.00%)
 Warning: drop high-lying PAOs                     6
 Number of occupied orbitals:    57
 Number of virtual  orbitals:   669
 Number of Cholesky vectors:     11
 MP2 energy in ED [au]:          -0.112165569854
 CPU time [min]:   478.682                   Wall time [min]:    13.354
 
 MO:    56
 Number of atoms in domain:       6
 Number of atomic orbitals:     732
 Number of atoms for local DF:    6
 Number of fitting functions:  2166 (100.00%)
 Warning: drop high-lying PAOs                     6
 Number of occupied orbitals:    57
 Number of virtual  orbitals:   669
 Number of Cholesky vectors:     11
 MP2 energy in ED [au]:          -0.118481128803
 CPU time [min]:   490.303                   Wall time [min]:    13.678
 
 MO:    57
 Number of atoms in domain:       6
 Number of atomic orbitals:     732
 Number of atoms for local DF:    6
 Number of fitting functions:  2166 (100.00%)
 Warning: drop high-lying PAOs                     6
 Number of occupied orbitals:    57
 Number of virtual  orbitals:   669
 Number of Cholesky vectors:     11
 MP2 energy in ED [au]:          -0.116034920543
 CPU time [min]:   501.918                   Wall time [min]:    14.001
 
 **********************************************************************
 Dimensions of the extended domains:    Minimum / Average / Maximum
 
 Number of atoms in domain:                   6       6.0         6
 Number of atomic orbitals:                 732     732.0       732
 Number of fitting functions:              2166    2166.0      2166
 Number of occupied localized MOs:           22      39.4        57
 Number of PAOs:                            669     669.0       669
 
 **********************************************************************
 Final local correlation results
 
 Sum of pair energies [au]:                    -0.000184142660    (0.002%)
 Sum of energy corrections [au]:                0.000000000000    (0.000%)
 Sum of LMO contributions [au]:                -7.653664717525
 
 Reference energy [au]:                     -1181.534596274896
 MP2 contribution [au]:                        -2.066539192250
 B2PLYP energy [au]:                        -1183.601135467146
 
 **********************************************************************
  Time of manipulations in the EDs:      max CPU/Wall [s]  all CPU/Wall [min]
 
 PD construction & multipole pair E     470.18    13.71     7.84     0.23
 Construct MO basis of the ED             6.55     0.19     5.40     0.15
 (mu,nu|P) evaluation & trf 2 (ai|P)    587.39    16.37   419.21    11.68
 Evaluate MP2 energy of the ED           85.24     2.38    54.59     1.52
 Total of the above for all EDs         679.18    18.93   479.19    13.35
 
 **********************************************************************
 Maximum memory requirement [MB]:       
 
 PD construction & multipole pair E         42.8
 AO integral evaluation in the EDs        6191.0
 (mu,nu|P) evaluation & trf 2 (aI|P)      7761.3
 Evaluate MP2 energy in the EDs           1031.2
 
 ************************ 2023-02-15 06:14:16 *************************
                      Normal termination of mrcc.
 **********************************************************************
