 vasp.6.4.1 05Apr23 (build May 06 2023 19:47:20) complex                        
  
 executed on             LinuxIFC date 2023.07.03  23:37:49
 running  768 mpi-ranks, with    1 threads/rank, on   48 nodes
 distrk:  each k-point on  768 cores,    1 groups
 distr:  one band on NCORE=  16 cores,   48 groups


--------------------------------------------------------------------------------------------------------


 INCAR:
   SYSTEM = MgO-rocksalt
   ISMEAR = 0
   SIGMA = 0.05
   EDIFF = 1E-6
   ALGO = ALL
   ISTART = 0
   IBRION = -1
   NSW = 0
   ISYM = 2
   DIPOL = 0.5 0.5 0.5
   IDIPOL = 3
   LDIPOL = .TRUE.
   LHFCALC = .TRUE.
   GGA = PE
   IVDW = 11
   VDW_S6 = 1.0
   VDW_SR = 1.287
   VDW_S8 = 0.928
   ENCUT = 520
   PREC = Accurate
   LASPH = .TRUE.
   LREAL = Auto
   ISPIN = 1
   NELM = 200
   NELMIN = 8
   NCORE = 16
   KPAR = 1
   LWAVE = .FALSE.
   LCHARG = .FALSE.

 POTCAR:    PAW_PBE Ag 02Apr2005                  
 -----------------------------------------------------------------------------
|                                                                             |
|           W    W    AA    RRRRR   N    N  II  N    N   GGGG   !!!           |
|           W    W   A  A   R    R  NN   N  II  NN   N  G    G  !!!           |
|           W    W  A    A  R    R  N N  N  II  N N  N  G       !!!           |
|           W WW W  AAAAAA  RRRRR   N  N N  II  N  N N  G  GGG   !            |
|           WW  WW  A    A  R   R   N   NN  II  N   NN  G    G                |
|           W    W  A    A  R    R  N    N  II  N    N   GGGG   !!!           |
|                                                                             |
|     You have selected ISYM=2 for a HF type calculation. This will           |
|     symmetrize the charge density but not the exchange potential. I         |
|     suggest to use ISYM=3 instead. This uses symmetry to obtain the         |
|     orbitals at all k-points in the Brillouin zone, but does not apply      |
|     symmetry to the Hartree potential directly. The resultant charge        |
|     might have lower symmetry than the crystal but, at least, Hartree       |
|     and exchange are fully compatible.                                      |
|                                                                             |
 -----------------------------------------------------------------------------

 POTCAR:    PAW_PBE Ag 02Apr2005                  
   SHA256 =  6550cfa3543261e132c169e1b98a529204624d72be14e2da2e0242bcb74a174d Ag/POTCAR             
   COPYR  = (c) Copyright 02Apr2005 Georg Kresse                                                    
   COPYR  = This file is part of the software VASP. Any use, copying, and all other rights are regul
   COPYR  = If you do not have a valid VASP license, you may not use, copy or distribute this file. 
   VRHFIN =Ag : s1 d10                                                                              
   LEXCH  = PE                                                                                      
   EATOM  =  1037.2675 eV,   76.2370 Ry                                                             
                                                                                                    
   TITEL  = PAW_PBE Ag 02Apr2005                                                                    
   LULTRA =        F    use ultrasoft PP ?                                                          
   IUNSCR =        1    unscreen: 0-lin 1-nonlin 2-no                                               
   RPACOR =    2.000    partial core radius                                                         
   POMASS =  107.868; ZVAL   =   11.000    mass and valenz                                          
   RCORE  =    2.500    outmost cutoff radius                                                       
   RWIGS  =    2.840; RWIGS  =    1.503    wigner-seitz radius (au A)                               
   ENMAX  =  249.844; ENMIN  =  187.383 eV                                                          
   ICORE  =        3    local potential                                                             
   LCOR   =        T    correct aug charges                                                         
   LPAW   =        T    paw PP                                                                      
   EAUG   =  412.496                                                                                
   DEXC   =    0.000                                                                                
   RMAX   =    2.560    core radius for proj-oper                                                   
   RAUG   =    1.300    factor for augmentation sphere                                              
   RDEP   =    2.576    radius for radial grids                                                     
   RDEPT  =    2.072    core radius for aug-charge                                                  
                                                                                                    
   Atomic configuration                                                                             
   12 entries                                                                                       
     n  l   j            E        occ.                                                              
     1  0  0.50    -25324.9161   2.0000                                                             
     2  0  0.50     -3728.5341   2.0000                                                             
     2  1  1.50     -3344.0404   6.0000                                                             
     3  0  0.50      -683.5581   2.0000                                                             
     3  1  1.50      -557.3225   6.0000                                                             
     3  2  2.50      -358.3853  10.0000                                                             
     4  0  0.50       -95.0341   2.0000                                                             
     4  1  1.50       -58.5511   6.0000                                                             
     4  2  2.50        -7.4440  10.0000                                                             
     5  0  0.50        -4.4045   1.0000                                                             
     5  1  0.50        -1.3606   0.0000                                                             
     4  3  2.50        -1.3606   0.0000                                                             
   Description                                                                                      
     l       E           TYP  RCUT    TYP  RCUT                                                     
     2     -7.4439781     23  2.400                                                                 
     2     -8.8045607     23  2.400                                                                 
     0     -4.4044681     23  2.400                                                                 
     0      1.9520038     23  2.400                                                                 
     1     -1.3605826     23  2.500                                                                 
     1     27.2116520     23  2.500                                                                 
     3     -4.0817478     23  2.400                                                                 
  local pseudopotential read in
  partial core-charges read in
  partial kinetic energy density read in
  atomic valenz-charges read in
  non local Contribution for L=           2  read in
    real space projection operators read in
  non local Contribution for L=           2  read in
    real space projection operators read in
  non local Contribution for L=           0  read in
    real space projection operators read in
  non local Contribution for L=           0  read in
    real space projection operators read in
  non local Contribution for L=           1  read in
    real space projection operators read in
  non local Contribution for L=           1  read in
    real space projection operators read in
    PAW grid and wavefunctions read in
 
   number of l-projection  operators is LMAX  =           6
   number of lm-projection operators is LMMAX =          18
 
 -----------------------------------------------------------------------------
|                                                                             |
|               ----> ADVICE to this user running VASP <----                  |
|                                                                             |
|     You have a (more or less) 'small supercell' and for smaller cells       |
|     it is recommended to use the reciprocal-space projection scheme!        |
|     The real-space optimization is not efficient for small cells and it     |
|     is also less accurate ...                                               |
|     Therefore, set LREAL=.FALSE. in the INCAR file.                         |
|                                                                             |
 -----------------------------------------------------------------------------

 Optimization of the real space projectors (new method)

 maximal supplied QI-value         = 15.12
 optimisation between [QCUT,QGAM] = [ 11.64, 23.28] = [ 37.95,151.78] Ry 
 Optimized for a Real-space Cutoff    1.45 Angstroem

   l    n(q)    QCUT    max X(q) W(low)/X(q) W(high)/X(q)  e(spline) 
   2      9    11.641    53.897    0.22E-03    0.42E-04    0.28E-06
   2      9    11.641    52.416    0.23E-03    0.44E-04    0.29E-06
   0     10    11.641   122.045    0.51E-04    0.25E-04    0.16E-06
   0     10    11.641    73.629    0.49E-04    0.24E-04    0.16E-06
   1     10    11.641    15.255    0.99E-04    0.55E-04    0.11E-06
   1     10    11.641     9.562    0.81E-04    0.47E-04    0.95E-07
  PAW_PBE Ag 02Apr2005                  :
 energy of atom  1       EATOM=-1037.2675
 kinetic energy error for atom=    0.0047 (will be added to EATOM!!)
 
 
 POSCAR: Ag
  positions in direct lattice
  No initial velocities read in
 exchange correlation table for  LEXCH =        8
   RHO(1)=    0.500       N(1)  =     2000
   RHO(2)=  100.500       N(2)  =     4000
 


--------------------------------------------------------------------------------------------------------


 ion  position               nearest neighbor table
   1  0.500  0.500  0.720-   2 2.55
   2  0.500  0.500  0.605-   1 2.55
 
  LATTYP: Found a simple tetragonal cell.
 ALAT       =    21.1388521970
 C/A-ratio  =     1.0461251639
  
  Lattice vectors:
  
 A1 = (  21.1388521970,   0.0000000000,   0.0000000000)
 A2 = (   0.0000000000,  21.1388521970,   0.0000000000)
 A3 = (   0.0000000000,   0.0000000000,  22.1138852197)


Analysis of symmetry for initial positions (statically):
=====================================================================
 Subroutine PRICEL returns:
 Original cell was already a primitive cell.
 

 Routine SETGRP: Setting up the symmetry group for a 
 simple tetragonal supercell.


 Subroutine GETGRP returns: Found 16 space group operations
 (whereof  8 operations were pure point group operations)
 out of a pool of 16 trial point group operations.


The static configuration has the point symmetry C_4v.
 The point group associated with its full space group is D_4h.


Analysis of symmetry for dynamics (positions and initial velocities):
=====================================================================
 Subroutine PRICEL returns:
 Original cell was already a primitive cell.
 

 Routine SETGRP: Setting up the symmetry group for a 
 simple tetragonal supercell.


 Subroutine GETGRP returns: Found 16 space group operations
 (whereof  8 operations were pure point group operations)
 out of a pool of 16 trial point group operations.


The dynamic configuration has the point symmetry C_4v.
 The point group associated with its full space group is D_4h.


 Subroutine INISYM returns: Found 16 space group operations
 (whereof  8 operations are pure point group operations),
 and found     1 'primitive' translations


----------------------------------------------------------------------------------------

                                     Primitive cell                                     

  volume of cell :    9881.6133

  direct lattice vectors                    reciprocal lattice vectors
    21.138852197  0.000000000  0.000000000     0.047306258  0.000000000  0.000000000
     0.000000000 21.138852197  0.000000000     0.000000000  0.047306258  0.000000000
     0.000000000  0.000000000 22.113885220     0.000000000  0.000000000  0.045220457

  length of vectors
    21.138852197 21.138852197 22.113885220     0.047306258  0.047306258  0.045220457

  position of ions in fractional coordinates (direct lattice)
     0.500000000  0.500000000  0.720254265
     0.500000000  0.500000000  0.605068473

  ion indices of the primitive-cell ions
   primitive index   ion index
                 1           1
                 2           2

----------------------------------------------------------------------------------------

 
 
 KPOINTS: KPOINTS created by Atomic Simulation Env

Automatic generation of k-mesh.
 Grid dimensions read from file:
 generate k-points for:    1    1    1

 Generating k-lattice:

  Cartesian coordinates                     Fractional coordinates (reciprocal lattice)
     0.047306258  0.000000000  0.000000000     1.000000000  0.000000000  0.000000000
     0.000000000  0.047306258  0.000000000     0.000000000  1.000000000  0.000000000
     0.000000000  0.000000000  0.045220457     0.000000000  0.000000000  1.000000000

  Length of vectors
     0.047306258  0.047306258  0.045220457

  Shift w.r.t. Gamma in fractional coordinates (k-lattice)
     0.000000000  0.000000000  0.000000000

 
 Subroutine IBZKPT returns following result:
 ===========================================
 
 Found      1 irreducible k-points:
 
 Following reciprocal coordinates:
            Coordinates               Weight
  0.000000  0.000000  0.000000      1.000000
 
 Following cartesian coordinates:
            Coordinates               Weight
  0.000000  0.000000  0.000000      1.000000
 
 
 Subroutine IBZKPT_HF returns following result:
 ==============================================
 
 Found      1 k-points in 1st BZ
 the following      1 k-points will be used (e.g. in the exchange kernel)
 Following reciprocal coordinates:   # in IRBZ
  0.000000  0.000000  0.000000    1.00000000   1 t-inv F


--------------------------------------------------------------------------------------------------------




 Dimension of arrays:
   k-points           NKPTS =      1   k-points in BZ     NKDIM =      1   number of bands    NBANDS=     48
   number of dos      NEDOS =    301   number of ions     NIONS =      2
   non local maximal  LDIM  =      6   non local SUM 2l+1 LMDIM =     18
   total plane-waves  NPLWV = ******
   max r-space proj   IRMAX =   5559   max aug-charges    IRDMAX=  21597
   dimension x,y,z NGX =   160 NGY =  160 NGZ =  168
   dimension x,y,z NGXF=   320 NGYF=  320 NGZF=  336
   support grid    NGXF=   320 NGYF=  320 NGZF=  336
   ions per type =               2
   NGX,Y,Z   is equivalent  to a cutoff of  12.58, 12.58, 12.63 a.u.
   NGXF,Y,Z  is equivalent  to a cutoff of  25.17, 25.17, 25.26 a.u.

 SYSTEM =  MgO-rocksalt                            
 POSCAR =  Ag                                      

 Startparameter for this run:
   NWRITE =      2    write-flag & timer
   PREC   = accura    normal or accurate (medium, high low for compatibility)
   ISTART =      0    job   : 0-new  1-cont  2-samecut
   ICHARG =      2    charge: 1-file 2-atom 10-const
   ISPIN  =      1    spin polarized calculation?
   LNONCOLLINEAR =      F non collinear calculations
   LSORBIT =      F    spin-orbit coupling
   INIWAV =      1    electr: 0-lowe 1-rand  2-diag
   LASPH  =      T    aspherical Exc in radial PAW
 Electronic Relaxation 1
   ENCUT  =  520.0 eV  38.22 Ry    6.18 a.u.  39.30 39.30 41.12*2*pi/ulx,y,z
   ENINI  =  520.0     initial cutoff
   ENAUG  =  412.5 eV  augmentation charge cutoff
   NELM   =    200;   NELMIN=  8; NELMDL= -5     # of ELM steps 
   EDIFF  = 0.1E-05   stopping-criterion for ELM
   LREAL  =      T    real-space projection
   NLSPLINE    = F    spline interpolate recip. space projectors
   LCOMPAT=      F    compatible to vasp.4.4
   GGA_COMPAT  = T    GGA compatible to vasp.4.4-vasp.4.6
   LMAXPAW     = -100 max onsite density
   LMAXMIX     =    2 max onsite mixed and CHGCAR
   VOSKOWN=      0    Vosko Wilk Nusair interpolation
   ROPT   =   -0.00025
 Ionic relaxation
   EDIFFG = 0.1E-04   stopping-criterion for IOM
   NSW    =      0    number of steps for IOM
   NBLOCK =      1;   KBLOCK =      1    inner block; outer block 
   IBRION =     -1    ionic relax: 0-MD 1-quasi-New 2-CG
   NFREE  =      0    steps in history (QN), initial steepest desc. (CG)
   ISIF   =      0    stress and relaxation
   IWAVPR =     10    prediction:  0-non 1-charg 2-wave 3-comb
   ISYM   =      2    0-nonsym 1-usesym 2-fastsym
   LCORR  =      T    Harris-Foulkes like correction to forces

   POTIM  = 0.5000    time-step for ionic-motion
   TEIN   =    0.0    initial temperature
   TEBEG  =    0.0;   TEEND  =   0.0 temperature during run
   SMASS  =  -3.00    Nose mass-parameter (am)
   estimated Nose-frequenzy (Omega)   =  0.10E-29 period in steps = 0.13E+47 mass=  -0.102E-25a.u.
   SCALEE = 1.0000    scale energy and forces
   NPACO  =    256;   APACO  = 10.0  distance and # of slots for P.C.
   PSTRESS=    0.0 pullay stress

  Mass of Ions in am
   POMASS = 107.87
  Ionic Valenz
   ZVAL   =  11.00
  Atomic Wigner-Seitz radii
   RWIGS  =  -1.00
  virtual crystal weights 
   VCA    =   1.00
   NELECT =      22.0000    total number of electrons
   NUPDOWN=      -1.0000    fix difference up-down

 DOS related values:
   EMIN   =  10.00;   EMAX   =-10.00  energy-range for DOS
   EFERMI =   0.00;   METHOD = LEGACY      
   ISMEAR =     0;   SIGMA  =   0.05  broadening in eV -4-tet -1-fermi 0-gaus

 Electronic relaxation 2 (details)
   IALGO  =     58    algorithm
   LDIAG  =      T    sub-space diagonalisation (order eigenvalues)
   LSUBROT=      F    optimize rotation matrix (better conditioning)
   TURBO    =      0    0=normal 1=particle mesh
   IRESTART =      0    0=no restart 2=restart with 2 vectors
   NREBOOT  =      0    no. of reboots
   NMIN     =      0    reboot dimension
   EREF     =   0.00    reference energy to select bands
   IMIX   =      4    mixing-type and parameters
     AMIX     =   0.40;   BMIX     =  1.00
     AMIX_MAG =   1.60;   BMIX_MAG =  1.00
     AMIN     =   0.10
     WC   =   100.;   INIMIX=   1;  MIXPRE=   1;  MAXMIX= -45

 Intra band minimization:
   WEIMIN = 0.0000     energy-eigenvalue tresh-hold
   EBREAK =  0.52E-08  absolut break condition
   DEPER  =   0.30     relativ break condition  

   TIME   =   0.40     timestep for ELM

  volume/ion in A,a.u.               =    4940.81     33342.21
  Fermi-wavevector in a.u.,A,eV,Ry     =   0.213767  0.403960  0.621734  0.045696
  Thomas-Fermi vector in A             =   0.985879
 
 Write flags
   LWAVE        =      F    write WAVECAR
   LDOWNSAMPLE  =      F    k-point downsampling of WAVECAR
   LCHARG       =      F    write CHGCAR
   LVTOT        =      F    write LOCPOT, total local potential
   LVHAR        =      F    write LOCPOT, Hartree potential only
   LELF         =      F    write electronic localiz. function (ELF)
   LORBIT       =      0    0 simple, 1 ext, 2 COOP (PROOUT), +10 PAW based schemes


 Dipole corrections
   LMONO  =      F    monopole corrections only (constant potential shift)
   LDIPOL =      T    correct potential (dipole corrections)
   IDIPOL =      3    1-x, 2-y, 3-z, 4-all directions 
   EPSILON=  1.0000000 bulk dielectric constant

 Exchange correlation treatment:
   GGA     =    PE    GGA type
   LEXCH   =     8    internal setting for exchange type
   LIBXC   =     F    Libxc                    
   VOSKOWN =     0    Vosko Wilk Nusair interpolation
   EXXOEP  =     0    0=HF, 1=EXX-LHF (local Hartree Fock) 2=EXX OEP
   LHFCALC =     T    Hartree Fock is set to
   LSYMGRAD=     F    symmetrize gradient (conserves proper symmetry)
   PRECFOCK=normal    Normal, Fast or Accurate (Low or Medium for compatibility)
   LRHFCALC=     F    long range Hartree Fock
   LRSCOR  =     F    long range correlation only (use DFT for short range part)
   LTHOMAS =     F    Thomas Fermi screening in HF
   LMODELHF=     F    short range full HF, long range fraction AEXX
   FOCKCORR=     1    mode to apply convergence corrections
   LFOCKACE=     T    use Adeptively-Compressed-Exchange operator
   ENCUT4O =  -1.0   cutoff for four orbital integrals eV
   LMAXFOCK=     4    L truncation for augmentation on plane wave grid
   LMAXFOCKAE=  -1    L truncation for all-electron charge restoration on plane wave grid
   NMAXFOCKAE=   1    number of basis functions for all-electron charge restoration
   LFOCKAEDFT=     F  apply the AE augmentation even for DFT
   NKREDX  =     1    reduce k-point grid by
   NKREDY  =     1    reduce k-point grid by
   NKREDZ  =     1    reduce k-point grid by
   SHIFTRED=     F    shift reduced grid of Gamma
   HFKIDENT=     F    idential grid for each k-point
   ODDONLY =     F    use only odd q-grid points
   EVENONLY=     F    use only even q-grid points
   HFALPHA =   -1.0000 decay constant for conv. correction
   MCALPHA =    0.0000 extent of test-charge in conv. correction in multipole expansion
   AEXX    =    0.2500 exact exchange contribution
   HFSCREEN=    0.0000 screening length (either q_TF or 0.3 A-1)
   HFSCREENC=   0.0000 screening length for correlation (either q_TF or 0.3 A-1)
   HFRCUT  =    0.0000 spherical cutoff for potential kernel
   ALDAX   =    0.7500 LDA exchange part
   AGGAX   =    0.7500 GGA exchange part
   ALDAC   =    1.0000 LDA correlation
   AGGAC   =    1.0000 GGA correlation
   ENCUTFOCK=  -1.0 apply spherical cutoff to Coloumb kernel
   NBANDSGWLOW=     1    first orbital included in HF term
   NBLOCK_FOCK=    64    blocking factor in FOCK_ACC

 Linear response parameters
   LEPSILON=     F    determine dielectric tensor
   LRPA    =     F    only Hartree local field effects (RPA)
   LNABLA  =     F    use nabla operator in PAW spheres
   LVEL    =     F    velocity operator in full k-point grid
   CSHIFT  =0.1000    complex shift for real part using Kramers Kronig
   OMEGAMAX=  -1.0    maximum frequency
   DEG_THRESHOLD= 0.2000000E-02 threshold for treating states as degnerate
   RTIME   =   -0.100 relaxation time in fs
  (WPLASMAI=    0.000 imaginary part of plasma frequency in eV, 0.658/RTIME)
   DFIELD  = 0.0000000 0.0000000 0.0000000 field for delta impulse in time
 
  Optional k-point grid parameters
   LKPOINTS_OPT  =     F    use optional k-point grid
   KPOINTS_OPT_MODE=     1    mode for optional k-point grid
 
 Orbital magnetization related:
   ORBITALMAG=     F  switch on orbital magnetization
   LCHIMAG   =     F  perturbation theory with respect to B field
   DQ        =  0.001000  dq finite difference perturbation B field
   LLRAUG    =     F  two centre corrections for induced B field
   LBONE     =     F  B-component reconstruction in AE one-centre
   LVGVCALC  =     T  calculate vGv susceptibility
   LVGVAPPL  =     F  apply vGv susceptibility instead of pGv for G=0

 Random number generation:
   RANDOM_GENERATOR = DEFAULT
   PCG_SEED         = not used


--------------------------------------------------------------------------------------------------------


 Static calculation
 charge density and potential will be updated during run
 non-spin polarized calculation
 Conjugate gradient for all bands (Freysoldt, et al. PRB 79, 241103 (2009))
 preconditioned conjugated gradient                                        
 perform sub-space diagonalisation
    before iterative eigenvector-optimisation
 modified Broyden-mixing scheme, WC =      100.0
 initial mixing is a Kerker type mixing with AMIX =  0.4000 and BMIX =      1.0000
 Hartree-type preconditioning will be used
 using additional bands           37
 real space projection scheme for non local part
 use partial core corrections
 no Harris-corrections to forces 
 use gradient corrections 
 use of overlap-Matrix (Vanderbilt PP)
 Gauss-broadening in eV      SIGMA  =   0.05


--------------------------------------------------------------------------------------------------------


  energy-cutoff  :      520.00
  volume of cell :     9881.61
      direct lattice vectors                 reciprocal lattice vectors
    21.138852197  0.000000000  0.000000000     0.047306258  0.000000000  0.000000000
     0.000000000 21.138852197  0.000000000     0.000000000  0.047306258  0.000000000
     0.000000000  0.000000000 22.113885220     0.000000000  0.000000000  0.045220457

  length of vectors
    21.138852197 21.138852197 22.113885220     0.047306258  0.047306258  0.045220457


 
 k-points in units of 2pi/SCALE and weight: KPOINTS created by Atomic Simulation Env
   0.00000000  0.00000000  0.00000000       1.000
 
 k-points in reciprocal lattice and weights: KPOINTS created by Atomic Simulation Env
   0.00000000  0.00000000  0.00000000       1.000
 
 position of ions in fractional coordinates (direct lattice) 
   0.50000000  0.50000000  0.72025427
   0.50000000  0.50000000  0.60506847
 
 position of ions in cartesian coordinates  (Angst):
  10.56942610 10.56942610 15.92762015
  10.56942610 10.56942610 13.38041476
 


--------------------------------------------------------------------------------------------------------


 k-point   1 :   0.0000 0.0000 0.0000  plane waves:  265979

 maximum and minimum number of plane-waves per node :     16635    16606

 maximum number of plane-waves:    265979
 maximum index in each direction: 
   IXMAX=   39   IYMAX=   39   IZMAX=   41
   IXMIN=  -39   IYMIN=  -39   IZMIN=  -41


 real space projection operators:
  total allocation   :       1507.36 KBytes
  max/ min on nodes  :        103.92         81.84


 parallel 3D FFT for wavefunctions:
    minimum data exchange during FFTs selected (reduces bandwidth)
 parallel 3D FFT for charge:
    minimum data exchange during FFTs selected (reduces bandwidth)


 FFT grid for exact exchange (Hartree Fock) 
  NGX =120; NGY =120; NGZ =126

 
 Radii for the augmentation spheres in the non-local exchange
 for species   1 augmentation radius   1.406 (default was   1.125)
       energy cutoff for augmentation   2080.0

 real space projection operators:
  total allocation   :        831.25 KBytes
  max/ min on nodes  :         78.12          0.00

 Maximum index for augmentation-charges in exchange          150
  SETUP_FOCK is finished

 total amount of memory used by VASP MPI-rank0    65688. kBytes
=======================================================================

   base      :      30000. kBytes
   nonlr-proj:        462. kBytes
   fftplans  :      18387. kBytes
   grid      :      15959. kBytes
   one-center:         15. kBytes
   HF        :         64. kBytes
   wavefun   :        801. kBytes
 
     INWAV:  cpu time      0.0004: real time      0.0005
 Broyden mixing: mesh for mixing (old mesh)
   NGX = 79   NGY = 79   NGZ = 83
  (NGX  =320   NGY  =320   NGZ  =336)
  gives a total of 518003 points

 initial charge density was supplied:
 charge density of overlapping atoms calculated
 number of electron      22.0000000 magnetization 
 keeping initial charge density in first step


--------------------------------------------------------------------------------------------------------


 Maximum index for non-local projection operator          373
 Maximum index for augmentation-charges            0 (set IRDMAX)


--------------------------------------------------------------------------------------------------------


    FEWALD:  cpu time      0.0069: real time      0.0069


--------------------------------------- Ionic step        1  -------------------------------------------




--------------------------------------- Iteration      1(   1)  ---------------------------------------


    POTLOK:  cpu time      0.5284: real time      0.5310
    SETDIJ:  cpu time      0.7713: real time      0.7720
    TRIAL :  cpu time      0.2749: real time      0.3293
    CORREC:  cpu time      0.0033: real time      0.0033
    --------------------------------------------
      LOOP:  cpu time      1.5807: real time      1.6987

 eigenvalue-minimisations  :    96
 total energy-change (2. order) :-0.1718255E+04  (-0.3134103E+03)
 number of electron      22.0000000 magnetization 
 augmentation part       22.0000000 magnetization 

 DIPCOR: dipole corrections for dipol
 direction  3 min pos     1,
 dipolmoment           0.000000      0.000000     -0.000072 electrons x Angstroem
 Tr[quadrupol]     -4913.663375

 energy correction for charged system         0.000000 eV
 dipol+quadrupol energy correction           -0.000000 eV
 added-field ion interaction          0.000113 eV  (added to PSCEN)


 Free energy of the ion-electron system (eV)
  ---------------------------------------------------
  alpha Z        PSCENC =         0.34442058
  Ewald energy   TEWEN  =       225.72110649
  -Hartree energ DENC   =     -2207.56135700
  -exchange      EXHF   =         0.00000000
  -V(xc)+E(xc)   XCENC  =       -23.73590446
  PAW double counting   =      2006.92429865    -3788.26358521
  entropy T*S    EENTRO =        -0.03593619
  eigenvalues    EBANDS =        -3.53992609
  atomic energy  EATOM  =      2071.89153690
  ---------------------------------------------------
  free energy    TOTEN  =     -1718.25534633 eV

  energy without entropy =    -1718.21941013  energy(sigma->0) =    -1718.23737823
  exchange ACFDT corr.  =         0.00000000  see jH, gK, PRB 81, 115126


--------------------------------------------------------------------------------------------------------




--------------------------------------- Iteration      1(   2)  ---------------------------------------


    TRIAL :  cpu time      0.6043: real time      0.6042
    CORREC:  cpu time      0.0011: real time      0.0011
    --------------------------------------------
      LOOP:  cpu time      0.6099: real time      0.6216

 eigenvalue-minimisations  :   192
 total energy-change (2. order) :-0.2137852E+03  (-0.2129088E+03)
 number of electron      22.0000000 magnetization 
 augmentation part       22.0000000 magnetization 

 DIPCOR: dipole corrections for dipol
 direction  3 min pos     1,
 dipolmoment           0.000000      0.000000     -0.000072 electrons x Angstroem
 Tr[quadrupol]     -4913.663375

 energy correction for charged system         0.000000 eV
 dipol+quadrupol energy correction           -0.000000 eV
 added-field ion interaction          0.000113 eV  (added to PSCEN)


 Free energy of the ion-electron system (eV)
  ---------------------------------------------------
  alpha Z        PSCENC =         0.34442058
  Ewald energy   TEWEN  =       225.72110649
  -Hartree energ DENC   =     -2207.56135700
  -exchange      EXHF   =         0.00000000
  -V(xc)+E(xc)   XCENC  =       -23.73590446
  PAW double counting   =      2006.92429865    -3788.26358521
  entropy T*S    EENTRO =        -0.00000000
  eigenvalues    EBANDS =      -217.36105285
  atomic energy  EATOM  =      2071.89153690
  ---------------------------------------------------
  free energy    TOTEN  =     -1932.04053690 eV

  energy without entropy =    -1932.04053690  energy(sigma->0) =    -1932.04053690
  exchange ACFDT corr.  =         0.00000000  see jH, gK, PRB 81, 115126


--------------------------------------------------------------------------------------------------------




--------------------------------------- Iteration      1(   3)  ---------------------------------------


    TRIAL :  cpu time      0.3516: real time      0.3523
    CORREC:  cpu time      0.0022: real time      0.0022
    --------------------------------------------
      LOOP:  cpu time      0.3848: real time      0.3858

 eigenvalue-minimisations  :    96
 total energy-change (2. order) :-0.1393372E+02  (-0.1393367E+02)
 number of electron      22.0000000 magnetization 
 augmentation part       22.0000000 magnetization 

 DIPCOR: dipole corrections for dipol
 direction  3 min pos     1,
 dipolmoment           0.000000      0.000000     -0.000072 electrons x Angstroem
 Tr[quadrupol]     -4913.663375

 energy correction for charged system         0.000000 eV
 dipol+quadrupol energy correction           -0.000000 eV
 added-field ion interaction          0.000113 eV  (added to PSCEN)


 Free energy of the ion-electron system (eV)
  ---------------------------------------------------
  alpha Z        PSCENC =         0.34442058
  Ewald energy   TEWEN  =       225.72110649
  -Hartree energ DENC   =     -2207.56135700
  -exchange      EXHF   =         0.00000000
  -V(xc)+E(xc)   XCENC  =       -23.73590446
  PAW double counting   =      2006.92429865    -3788.26358521
  entropy T*S    EENTRO =        -0.00000000
  eigenvalues    EBANDS =      -231.29477504
  atomic energy  EATOM  =      2071.89153690
  ---------------------------------------------------
  free energy    TOTEN  =     -1945.97425908 eV

  energy without entropy =    -1945.97425908  energy(sigma->0) =    -1945.97425908
  exchange ACFDT corr.  =         0.00000000  see jH, gK, PRB 81, 115126


--------------------------------------------------------------------------------------------------------




--------------------------------------- Iteration      1(   4)  ---------------------------------------


    TRIAL :  cpu time      0.1907: real time      0.1907
    CORREC:  cpu time      0.0013: real time      0.0013
    --------------------------------------------
      LOOP:  cpu time      0.2043: real time      0.2117

 eigenvalue-minimisations  :    96
 total energy-change (2. order) :-0.6130407E-01  (-0.6130362E-01)
 number of electron      22.0000000 magnetization 
 augmentation part       22.0000000 magnetization 

 DIPCOR: dipole corrections for dipol
 direction  3 min pos     1,
 dipolmoment           0.000000      0.000000     -0.000072 electrons x Angstroem
 Tr[quadrupol]     -4913.663375

 energy correction for charged system         0.000000 eV
 dipol+quadrupol energy correction           -0.000000 eV
 added-field ion interaction          0.000113 eV  (added to PSCEN)


 Free energy of the ion-electron system (eV)
  ---------------------------------------------------
  alpha Z        PSCENC =         0.34442058
  Ewald energy   TEWEN  =       225.72110649
  -Hartree energ DENC   =     -2207.56135700
  -exchange      EXHF   =         0.00000000
  -V(xc)+E(xc)   XCENC  =       -23.73590446
  PAW double counting   =      2006.92429865    -3788.26358521
  entropy T*S    EENTRO =        -0.00000000
  eigenvalues    EBANDS =      -231.35607911
  atomic energy  EATOM  =      2071.89153690
  ---------------------------------------------------
  free energy    TOTEN  =     -1946.03556315 eV

  energy without entropy =    -1946.03556315  energy(sigma->0) =    -1946.03556315
  exchange ACFDT corr.  =         0.00000000  see jH, gK, PRB 81, 115126


--------------------------------------------------------------------------------------------------------




--------------------------------------- Iteration      1(   5)  ---------------------------------------


    POTLOK:  cpu time      0.2899: real time      0.2896
    SETDIJ:  cpu time      0.7803: real time      0.7809
    TRIAL :  cpu time      2.7517: real time      2.7582
    CORREC:  cpu time      0.0009: real time      0.0009
    CHARGE:  cpu time      2.0370: real time      2.0393
    --------------------------------------------
      LOOP:  cpu time      5.8765: real time      5.8961

 eigenvalue-minimisations  :    96
 total energy-change (2. order) : 0.1943020E+04  (-0.1640500E+01)
 number of electron      22.0000006 magnetization 
 augmentation part       10.9111358 magnetization 

 DIPCOR: dipole corrections for dipol
 direction  3 min pos     1,
 dipolmoment           0.000000      0.000000     -0.000072 electrons x Angstroem
 Tr[quadrupol]     -4913.663375

 energy correction for charged system         0.000000 eV
 dipol+quadrupol energy correction           -0.000000 eV
 added-field ion interaction          0.000113 eV  (added to PSCEN)


 Free energy of the ion-electron system (eV)
  ---------------------------------------------------
  alpha Z        PSCENC =         0.34442058
  Ewald energy   TEWEN  =       225.72110649
  -Hartree energ DENC   =     -2207.56135700
  -exchange      EXHF   =        56.84983569
  -V(xc)+E(xc)   XCENC  =       -18.32976041
  PAW double counting   =      2001.38795025    -1923.18627343
  entropy T*S    EENTRO =        -0.00000000
  eigenvalues    EBANDS =      -210.13264433
  atomic energy  EATOM  =      2071.89153690
  ---------------------------------------------------
  free energy    TOTEN  =        -3.01518525 eV

  energy without entropy =       -3.01518525  energy(sigma->0) =       -3.01518525
  exchange ACFDT corr.  =        -0.00000000  see jH, gK, PRB 81, 115126


--------------------------------------------------------------------------------------------------------




--------------------------------------- Iteration      1(   6)  ---------------------------------------


    POTLOK:  cpu time      0.2968: real time      0.2966
    SETDIJ:  cpu time      0.7667: real time      0.7674
    TRIAL :  cpu time      2.5002: real time      2.5683
    CORREC:  cpu time      5.6533: real time      5.6408
    CHARGE:  cpu time      2.2932: real time      2.2971
    --------------------------------------------
      LOOP:  cpu time     11.5288: real time     11.5967

 eigenvalue-minimisations  :     0
 total energy-change (2. order) : 0.7796372E+00  (-0.5590726E+00)
 number of electron      22.0000006 magnetization 
 augmentation part       10.7102869 magnetization 

 DIPCOR: dipole corrections for dipol
 direction  3 min pos     1,
 dipolmoment           0.000000      0.000000     -0.002174 electrons x Angstroem
 Tr[quadrupol]     -4915.780964

 energy correction for charged system         0.000000 eV
 dipol+quadrupol energy correction           -0.000000 eV
 added-field ion interaction          0.003404 eV  (added to PSCEN)


 Free energy of the ion-electron system (eV)
  ---------------------------------------------------
  alpha Z        PSCENC =         0.34438755
  Ewald energy   TEWEN  =       225.72110649
  -Hartree energ DENC   =     -2261.38491641
  -exchange      EXHF   =        54.85598485
  -V(xc)+E(xc)   XCENC  =       -17.39999167
  PAW double counting   =      2329.90365481    -2253.29719381
  entropy T*S    EENTRO =        -0.00000000
  eigenvalues    EBANDS =      -152.87011676
  atomic energy  EATOM  =      2071.89153690
  ---------------------------------------------------
  free energy    TOTEN  =        -2.23554805 eV

  energy without entropy =       -2.23554805  energy(sigma->0) =       -2.23554805
  exchange ACFDT corr.  =        -0.00000000  see jH, gK, PRB 81, 115126


--------------------------------------------------------------------------------------------------------




--------------------------------------- Iteration      1(   7)  ---------------------------------------


    POTLOK:  cpu time      0.2794: real time      0.2802
    SETDIJ:  cpu time      0.7655: real time      0.7660
    TRIAL :  cpu time      2.2639: real time      2.2651
    CORREC:  cpu time      5.4077: real time      5.3941
    CHARGE:  cpu time      2.1049: real time      2.0738
    --------------------------------------------
      LOOP:  cpu time     10.8308: real time     10.7984

 eigenvalue-minimisations  :     0
 total energy-change (2. order) :-0.5642430E+00  (-0.6966784E-01)
 number of electron      22.0000006 magnetization 
 augmentation part       10.7561380 magnetization 

 DIPCOR: dipole corrections for dipol
 direction  3 min pos     1,
 dipolmoment           0.000000      0.000000     -0.001702 electrons x Angstroem
 Tr[quadrupol]     -4915.826245

 energy correction for charged system         0.000000 eV
 dipol+quadrupol energy correction           -0.000000 eV
 added-field ion interaction          0.002665 eV  (added to PSCEN)


 Free energy of the ion-electron system (eV)
  ---------------------------------------------------
  alpha Z        PSCENC =         0.34634337
  Ewald energy   TEWEN  =       225.72110649
  -Hartree energ DENC   =     -2222.65143399
  -exchange      EXHF   =        54.00433948
  -V(xc)+E(xc)   XCENC  =       -18.17273900
  PAW double counting   =      2291.12080984    -2213.99971974
  entropy T*S    EENTRO =        -0.00000000
  eigenvalues    EBANDS =      -191.06003436
  atomic energy  EATOM  =      2071.89153690
  ---------------------------------------------------
  free energy    TOTEN  =        -2.79979103 eV

  energy without entropy =       -2.79979103  energy(sigma->0) =       -2.79979103
  exchange ACFDT corr.  =        -0.00000000  see jH, gK, PRB 81, 115126


--------------------------------------------------------------------------------------------------------




--------------------------------------- Iteration      1(   8)  ---------------------------------------


    POTLOK:  cpu time      0.2804: real time      0.2806
    SETDIJ:  cpu time      0.7661: real time      0.7668
    TRIAL :  cpu time      2.1993: real time      2.2003
    CORREC:  cpu time      5.2759: real time      5.2814
    CHARGE:  cpu time      2.1254: real time      2.1289
    --------------------------------------------
      LOOP:  cpu time     10.6522: real time     10.6719

 eigenvalue-minimisations  :     0
 total energy-change (2. order) :-0.6977724E-01  (-0.2694906E-01)
 number of electron      22.0000006 magnetization 
 augmentation part       10.7456160 magnetization 

 DIPCOR: dipole corrections for dipol
 direction  3 min pos     1,
 dipolmoment           0.000000      0.000000     -0.001278 electrons x Angstroem
 Tr[quadrupol]     -4915.720106

 energy correction for charged system         0.000000 eV
 dipol+quadrupol energy correction           -0.000000 eV
 added-field ion interaction          0.002001 eV  (added to PSCEN)


 Free energy of the ion-electron system (eV)
  ---------------------------------------------------
  alpha Z        PSCENC =         0.34720200
  Ewald energy   TEWEN  =       225.72110649
  -Hartree energ DENC   =     -2226.03722301
  -exchange      EXHF   =        54.14300525
  -V(xc)+E(xc)   XCENC  =       -18.05260319
  PAW double counting   =      2287.75045923    -2210.55955761
  entropy T*S    EENTRO =        -0.00000000
  eigenvalues    EBANDS =      -188.07349432
  atomic energy  EATOM  =      2071.89153690
  ---------------------------------------------------
  free energy    TOTEN  =        -2.86956826 eV

  energy without entropy =       -2.86956826  energy(sigma->0) =       -2.86956826
  exchange ACFDT corr.  =        -0.00000000  see jH, gK, PRB 81, 115126


--------------------------------------------------------------------------------------------------------




--------------------------------------- Iteration      1(   9)  ---------------------------------------


    POTLOK:  cpu time      0.2781: real time      0.2779
    SETDIJ:  cpu time      0.7660: real time      0.7660
    TRIAL :  cpu time      2.2153: real time      2.2173
    CORREC:  cpu time      5.3358: real time      5.3398
    CHARGE:  cpu time      2.0391: real time      2.0422
    --------------------------------------------
      LOOP:  cpu time     10.6489: real time     10.6578

 eigenvalue-minimisations  :     0
 total energy-change (2. order) :-0.2693706E-01  (-0.1018502E-01)
 number of electron      22.0000006 magnetization 
 augmentation part       10.7481777 magnetization 

 DIPCOR: dipole corrections for dipol
 direction  3 min pos     1,
 dipolmoment           0.000000      0.000000     -0.000266 electrons x Angstroem
 Tr[quadrupol]     -4915.574446

 energy correction for charged system         0.000000 eV
 dipol+quadrupol energy correction           -0.000000 eV
 added-field ion interaction          0.000417 eV  (added to PSCEN)


 Free energy of the ion-electron system (eV)
  ---------------------------------------------------
  alpha Z        PSCENC =         0.34530978
  Ewald energy   TEWEN  =       225.72110649
  -Hartree energ DENC   =     -2224.39605321
  -exchange      EXHF   =        54.10233666
  -V(xc)+E(xc)   XCENC  =       -18.08565025
  PAW double counting   =      2283.43970130    -2206.19150656
  entropy T*S    EENTRO =        -0.00000000
  eigenvalues    EBANDS =      -189.72328642
  atomic energy  EATOM  =      2071.89153690
  ---------------------------------------------------
  free energy    TOTEN  =        -2.89650532 eV

  energy without entropy =       -2.89650532  energy(sigma->0) =       -2.89650532
  exchange ACFDT corr.  =        -0.00000000  see jH, gK, PRB 81, 115126


--------------------------------------------------------------------------------------------------------




--------------------------------------- Iteration      1(  10)  ---------------------------------------


    POTLOK:  cpu time      0.2761: real time      0.2759
    SETDIJ:  cpu time      0.7691: real time      0.7698
    TRIAL :  cpu time      2.2179: real time      2.2203
    CORREC:  cpu time      5.2443: real time      5.2492
    CHARGE:  cpu time      2.0329: real time      2.0367
    --------------------------------------------
      LOOP:  cpu time     10.5495: real time     10.5706

 eigenvalue-minimisations  :     0
 total energy-change (2. order) :-0.1010231E-01  (-0.2062575E-02)
 number of electron      22.0000006 magnetization 
 augmentation part       10.7551151 magnetization 

 DIPCOR: dipole corrections for dipol
 direction  3 min pos     1,
 dipolmoment           0.000000      0.000000     -0.000010 electrons x Angstroem
 Tr[quadrupol]     -4915.465989

 energy correction for charged system         0.000000 eV
 dipol+quadrupol energy correction           -0.000000 eV
 added-field ion interaction          0.000016 eV  (added to PSCEN)


 Free energy of the ion-electron system (eV)
  ---------------------------------------------------
  alpha Z        PSCENC =         0.34439207
  Ewald energy   TEWEN  =       225.72110649
  -Hartree energ DENC   =     -2222.91458231
  -exchange      EXHF   =        54.07812108
  -V(xc)+E(xc)   XCENC  =       -18.11276910
  PAW double counting   =      2283.13072263    -2205.84650939
  entropy T*S    EENTRO =        -0.00000000
  eigenvalues    EBANDS =      -191.19862600
  atomic energy  EATOM  =      2071.89153690
  ---------------------------------------------------
  free energy    TOTEN  =        -2.90660763 eV

  energy without entropy =       -2.90660763  energy(sigma->0) =       -2.90660763
  exchange ACFDT corr.  =        -0.00000000  see jH, gK, PRB 81, 115126


--------------------------------------------------------------------------------------------------------




--------------------------------------- Iteration      1(  11)  ---------------------------------------


    POTLOK:  cpu time      0.2602: real time      0.2600
    SETDIJ:  cpu time      0.7682: real time      0.7689
    TRIAL :  cpu time      2.3397: real time      2.3410
    CORREC:  cpu time      5.5467: real time      5.5552
    CHARGE:  cpu time      2.1641: real time      2.1670
    --------------------------------------------
      LOOP:  cpu time     11.0926: real time     11.1061

 eigenvalue-minimisations  :     0
 total energy-change (2. order) :-0.2058546E-02  (-0.4543981E-03)
 number of electron      22.0000006 magnetization 
 augmentation part       10.7499998 magnetization 

 DIPCOR: dipole corrections for dipol
 direction  3 min pos     1,
 dipolmoment           0.000000      0.000000     -0.000010 electrons x Angstroem
 Tr[quadrupol]     -4915.446511

 energy correction for charged system         0.000000 eV
 dipol+quadrupol energy correction           -0.000000 eV
 added-field ion interaction          0.000015 eV  (added to PSCEN)


 Free energy of the ion-electron system (eV)
  ---------------------------------------------------
  alpha Z        PSCENC =         0.34431705
  Ewald energy   TEWEN  =       225.72110649
  -Hartree energ DENC   =     -2223.58130595
  -exchange      EXHF   =        54.09496624
  -V(xc)+E(xc)   XCENC  =       -18.09856832
  PAW double counting   =      2284.34869621    -2207.06564986
  entropy T*S    EENTRO =        -0.00000000
  eigenvalues    EBANDS =      -190.56376494
  atomic energy  EATOM  =      2071.89153690
  ---------------------------------------------------
  free energy    TOTEN  =        -2.90866618 eV

  energy without entropy =       -2.90866618  energy(sigma->0) =       -2.90866618
  exchange ACFDT corr.  =        -0.00000000  see jH, gK, PRB 81, 115126


--------------------------------------------------------------------------------------------------------




--------------------------------------- Iteration      1(  12)  ---------------------------------------


    POTLOK:  cpu time      0.2817: real time      0.2798
    SETDIJ:  cpu time      0.7681: real time      0.7688
    TRIAL :  cpu time      2.3159: real time      2.3176
    CORREC:  cpu time      5.4113: real time      5.4174
    CHARGE:  cpu time      2.1820: real time      2.1844
    --------------------------------------------
      LOOP:  cpu time     10.9736: real time     10.9915

 eigenvalue-minimisations  :     0
 total energy-change (2. order) :-0.4546866E-03  (-0.1473663E-03)
 number of electron      22.0000006 magnetization 
 augmentation part       10.7515718 magnetization 

 DIPCOR: dipole corrections for dipol
 direction  3 min pos     1,
 dipolmoment           0.000000      0.000000     -0.000011 electrons x Angstroem
 Tr[quadrupol]     -4915.447813

 energy correction for charged system         0.000000 eV
 dipol+quadrupol energy correction           -0.000000 eV
 added-field ion interaction          0.000017 eV  (added to PSCEN)


 Free energy of the ion-electron system (eV)
  ---------------------------------------------------
  alpha Z        PSCENC =         0.34432324
  Ewald energy   TEWEN  =       225.72110649
  -Hartree energ DENC   =     -2222.76820854
  -exchange      EXHF   =        54.07426781
  -V(xc)+E(xc)   XCENC  =       -18.11652987
  PAW double counting   =      2283.67387554    -2206.38501429
  entropy T*S    EENTRO =        -0.00000000
  eigenvalues    EBANDS =      -191.34447813
  atomic energy  EATOM  =      2071.89153690
  ---------------------------------------------------
  free energy    TOTEN  =        -2.90912087 eV

  energy without entropy =       -2.90912087  energy(sigma->0) =       -2.90912087
  exchange ACFDT corr.  =        -0.00000000  see jH, gK, PRB 81, 115126


--------------------------------------------------------------------------------------------------------




--------------------------------------- Iteration      1(  13)  ---------------------------------------


    POTLOK:  cpu time      0.2609: real time      0.2608
    SETDIJ:  cpu time      0.7658: real time      0.7657
    TRIAL :  cpu time      2.2803: real time      2.2822
    CORREC:  cpu time      5.3237: real time      5.3286
    CHARGE:  cpu time      2.0946: real time      2.0924
    --------------------------------------------
      LOOP:  cpu time     10.7433: real time     10.7569

 eigenvalue-minimisations  :     0
 total energy-change (2. order) :-0.1466752E-03  (-0.3203487E-04)
 number of electron      22.0000006 magnetization 
 augmentation part       10.7512937 magnetization 

 DIPCOR: dipole corrections for dipol
 direction  3 min pos     1,
 dipolmoment           0.000000      0.000000     -0.000010 electrons x Angstroem
 Tr[quadrupol]     -4915.448369

 energy correction for charged system         0.000000 eV
 dipol+quadrupol energy correction           -0.000000 eV
 added-field ion interaction          0.000015 eV  (added to PSCEN)


 Free energy of the ion-electron system (eV)
  ---------------------------------------------------
  alpha Z        PSCENC =         0.34432497
  Ewald energy   TEWEN  =       225.72110649
  -Hartree energ DENC   =     -2223.02164735
  -exchange      EXHF   =        54.07990338
  -V(xc)+E(xc)   XCENC  =       -18.11114702
  PAW double counting   =      2284.02417968    -2206.73750671
  entropy T*S    EENTRO =        -0.00000000
  eigenvalues    EBANDS =      -191.10001787
  atomic energy  EATOM  =      2071.89153690
  ---------------------------------------------------
  free energy    TOTEN  =        -2.90926754 eV

  energy without entropy =       -2.90926754  energy(sigma->0) =       -2.90926754
  exchange ACFDT corr.  =        -0.00000000  see jH, gK, PRB 81, 115126


--------------------------------------------------------------------------------------------------------




--------------------------------------- Iteration      1(  14)  ---------------------------------------


    POTLOK:  cpu time      0.2556: real time      0.2549
    SETDIJ:  cpu time      0.7656: real time      0.7663
    TRIAL :  cpu time      2.3256: real time      2.3274
    CORREC:  cpu time      5.4357: real time      5.4402
    CHARGE:  cpu time      2.1274: real time      2.1294
    --------------------------------------------
      LOOP:  cpu time     10.9141: real time     10.9314

 eigenvalue-minimisations  :     0
 total energy-change (2. order) :-0.3216555E-04  (-0.8811304E-05)
 number of electron      22.0000006 magnetization 
 augmentation part       10.7512772 magnetization 

 DIPCOR: dipole corrections for dipol
 direction  3 min pos     1,
 dipolmoment           0.000000      0.000000     -0.000008 electrons x Angstroem
 Tr[quadrupol]     -4915.449116

 energy correction for charged system         0.000000 eV
 dipol+quadrupol energy correction           -0.000000 eV
 added-field ion interaction          0.000013 eV  (added to PSCEN)


 Free energy of the ion-electron system (eV)
  ---------------------------------------------------
  alpha Z        PSCENC =         0.34432194
  Ewald energy   TEWEN  =       225.72110649
  -Hartree energ DENC   =     -2222.96755586
  -exchange      EXHF   =        54.07850998
  -V(xc)+E(xc)   XCENC  =       -18.11223858
  PAW double counting   =      2284.07134124    -2206.78459925
  entropy T*S    EENTRO =        -0.00000000
  eigenvalues    EBANDS =      -191.15172257
  atomic energy  EATOM  =      2071.89153690
  ---------------------------------------------------
  free energy    TOTEN  =        -2.90929971 eV

  energy without entropy =       -2.90929971  energy(sigma->0) =       -2.90929971
  exchange ACFDT corr.  =        -0.00000000  see jH, gK, PRB 81, 115126


--------------------------------------------------------------------------------------------------------




--------------------------------------- Iteration      1(  15)  ---------------------------------------


    POTLOK:  cpu time      0.2551: real time      0.2556
    SETDIJ:  cpu time      0.7631: real time      0.7631
    TRIAL :  cpu time      2.3282: real time      2.3301
    CORREC:  cpu time      5.4047: real time      5.4097
    CHARGE:  cpu time      2.0200: real time      2.0227
    --------------------------------------------
      LOOP:  cpu time     10.7896: real time     10.8000

 eigenvalue-minimisations  :     0
 total energy-change (2. order) :-0.8820331E-05  (-0.3688659E-05)
 number of electron      22.0000006 magnetization 
 augmentation part       10.7513549 magnetization 

 DIPCOR: dipole corrections for dipol
 direction  3 min pos     1,
 dipolmoment           0.000000      0.000000     -0.000008 electrons x Angstroem
 Tr[quadrupol]     -4915.450401

 energy correction for charged system         0.000000 eV
 dipol+quadrupol energy correction           -0.000000 eV
 added-field ion interaction          0.000013 eV  (added to PSCEN)


 Free energy of the ion-electron system (eV)
  ---------------------------------------------------
  alpha Z        PSCENC =         0.34432023
  Ewald energy   TEWEN  =       225.72110649
  -Hartree energ DENC   =     -2222.97204969
  -exchange      EXHF   =        54.07848305
  -V(xc)+E(xc)   XCENC  =       -18.11219629
  PAW double counting   =      2284.21039840    -2206.92393007
  entropy T*S    EENTRO =        -0.00000000
  eigenvalues    EBANDS =      -191.14697754
  atomic energy  EATOM  =      2071.89153690
  ---------------------------------------------------
  free energy    TOTEN  =        -2.90930853 eV

  energy without entropy =       -2.90930853  energy(sigma->0) =       -2.90930853
  exchange ACFDT corr.  =        -0.00000000  see jH, gK, PRB 81, 115126


--------------------------------------------------------------------------------------------------------




--------------------------------------- Iteration      1(  16)  ---------------------------------------


    POTLOK:  cpu time      0.2481: real time      0.2488
    SETDIJ:  cpu time      0.7707: real time      0.7707
    TRIAL :  cpu time      2.4562: real time      2.4579
    CORREC:  cpu time      5.2889: real time      5.2938
    CHARGE:  cpu time      2.0593: real time      2.0622
    --------------------------------------------
      LOOP:  cpu time     10.8390: real time     10.8496

 eigenvalue-minimisations  :     0
 total energy-change (2. order) :-0.3578470E-05  (-0.1119175E-05)
 number of electron      22.0000006 magnetization 
 augmentation part       10.7512464 magnetization 

 DIPCOR: dipole corrections for dipol
 direction  3 min pos     1,
 dipolmoment           0.000000      0.000000     -0.000009 electrons x Angstroem
 Tr[quadrupol]     -4915.451386

 energy correction for charged system         0.000000 eV
 dipol+quadrupol energy correction           -0.000000 eV
 added-field ion interaction          0.000014 eV  (added to PSCEN)


 Free energy of the ion-electron system (eV)
  ---------------------------------------------------
  alpha Z        PSCENC =         0.34432066
  Ewald energy   TEWEN  =       225.72110649
  -Hartree energ DENC   =     -2222.99757562
  -exchange      EXHF   =        54.07899002
  -V(xc)+E(xc)   XCENC  =       -18.11172100
  PAW double counting   =      2284.36522280    -2207.07929189
  entropy T*S    EENTRO =        -0.00000000
  eigenvalues    EBANDS =      -191.12190046
  atomic energy  EATOM  =      2071.89153690
  ---------------------------------------------------
  free energy    TOTEN  =        -2.90931211 eV

  energy without entropy =       -2.90931211  energy(sigma->0) =       -2.90931211
  exchange ACFDT corr.  =        -0.00000000  see jH, gK, PRB 81, 115126


--------------------------------------------------------------------------------------------------------




--------------------------------------- Iteration      1(  17)  ---------------------------------------


    POTLOK:  cpu time      0.4255: real time      0.4262
    SETDIJ:  cpu time      0.7657: real time      0.7664
    TRIAL :  cpu time      2.4213: real time      2.4224
    CORREC:  cpu time      5.5401: real time      5.5446
    CHARGE:  cpu time      2.0919: real time      2.0942
    --------------------------------------------
      LOOP:  cpu time     11.2566: real time     11.2756

 eigenvalue-minimisations  :     0
 total energy-change (2. order) :-0.1126233E-05  (-0.5516605E-06)
 number of electron      22.0000006 magnetization 
 augmentation part       10.7513149 magnetization 

 DIPCOR: dipole corrections for dipol
 direction  3 min pos     1,
 dipolmoment           0.000000      0.000000     -0.000009 electrons x Angstroem
 Tr[quadrupol]     -4915.451567

 energy correction for charged system         0.000000 eV
 dipol+quadrupol energy correction           -0.000000 eV
 added-field ion interaction          0.000014 eV  (added to PSCEN)


 Free energy of the ion-electron system (eV)
  ---------------------------------------------------
  alpha Z        PSCENC =         0.34432126
  Ewald energy   TEWEN  =       225.72110649
  -Hartree energ DENC   =     -2222.98673552
  -exchange      EXHF   =        54.07870346
  -V(xc)+E(xc)   XCENC  =       -18.11196717
  PAW double counting   =      2284.40575503    -2207.11997394
  entropy T*S    EENTRO =        -0.00000000
  eigenvalues    EBANDS =      -191.13205973
  atomic energy  EATOM  =      2071.89153690
  ---------------------------------------------------
  free energy    TOTEN  =        -2.90931323 eV

  energy without entropy =       -2.90931323  energy(sigma->0) =       -2.90931323
  exchange ACFDT corr.  =        -0.00000000  see jH, gK, PRB 81, 115126


--------------------------------------------------------------------------------------------------------




--------------------------------------- Iteration      1(  18)  ---------------------------------------


    POTLOK:  cpu time      0.2816: real time      0.2815
    SETDIJ:  cpu time      0.7640: real time      0.7647
    TRIAL :  cpu time      2.5807: real time      2.5825
    CORREC:  cpu time      5.4558: real time      5.4599
    EDDIAG:  cpu time      2.1850: real time      2.1814
    CHARGE:  cpu time      2.0319: real time      2.0338
    --------------------------------------------
      LOOP:  cpu time     13.3110: real time     13.3253

 eigenvalue-minimisations  :     0
 total energy-change (2. order) :-0.4512044E-06  (-0.6857072E-07)
 number of electron      22.0000006 magnetization 
 augmentation part       10.7512804 magnetization 

 DIPCOR: dipole corrections for dipol
 direction  3 min pos     1,
 dipolmoment           0.000000      0.000000     -0.000009 electrons x Angstroem
 Tr[quadrupol]     -4915.451752

 energy correction for charged system         0.000000 eV
 dipol+quadrupol energy correction           -0.000000 eV
 added-field ion interaction          0.000015 eV  (added to PSCEN)


 Free energy of the ion-electron system (eV)
  ---------------------------------------------------
  alpha Z        PSCENC =         0.34432188
  Ewald energy   TEWEN  =       225.72110649
  -Hartree energ DENC   =     -2223.00041491
  -exchange      EXHF   =        54.07892896
  -V(xc)+E(xc)   XCENC  =       -18.11166649
  PAW double counting   =      2284.44392940    -2207.15844232
  entropy T*S    EENTRO =        -0.00000000
  eigenvalues    EBANDS =      -191.11872427
  atomic energy  EATOM  =      2071.89153690
  ---------------------------------------------------
  free energy    TOTEN  =        -2.90931368 eV

  energy without entropy =       -2.90931368  energy(sigma->0) =       -2.90931368
  exchange ACFDT corr.  =        -0.00000000  see jH, gK, PRB 81, 115126


--------------------------------------------------------------------------------------------------------


  average scaling for gradient   1.3562


 average (electrostatic) potential at core
  the test charge radii are     1.1249
  (the norm of the test charge is              1.0000)
       1 -75.2337       2 -75.2337
 
 
 
 E-fermi :  -5.3656     XC(G=0):  -0.1213     alpha+bet : -0.0465

 Fermi energy:        -5.3656493964

 k-point     1 :       0.0000    0.0000    0.0000
  band No.  band energies     occupation 
      1     -10.0270      2.00000
      2      -9.5421      2.00000
      3      -9.5421      2.00000
      4      -9.0060      2.00000
      5      -9.0059      2.00000
      6      -8.8007      2.00000
      7      -8.8007      2.00000
      8      -8.4771      2.00000
      9      -8.4771      2.00000
     10      -8.2701      2.00000
     11      -5.6145      2.00000
     12      -2.2656      0.00000
     13      -0.5204      0.00000
     14      -0.5204      0.00000
     15      -0.1418      0.00000
     16       0.1198      0.00000
     17       0.3260      0.00000
     18       0.3264      0.00000
     19       0.3588      0.00000
     20       0.3951      0.00000
     21       0.3951      0.00000
     22       0.4907      0.00000
     23       0.5554      0.00000
     24       0.5554      0.00000
     25       0.6556      0.00000
     26       0.6626      0.00000
     27       0.6653      0.00000
     28       0.6668      0.00000
     29       0.6695      0.00000
     30       0.6802      0.00000
     31       0.6802      0.00000
     32       0.7664      0.00000
     33       0.7664      0.00000
     34       0.8466      0.00000
     35       0.8790      0.00000
     36       0.8790      0.00000
     37       0.9663      0.00000
     38       0.9859      0.00000
     39       0.9970      0.00000
     40       1.0651      0.00000
     41       1.0652      0.00000
     42       1.0813      0.00000
     43       1.2604      0.00000
     44       1.2604      0.00000
     45       1.2623      0.00000
     46       1.2644      0.00000
     47       1.2734      0.00000
     48       1.3890      0.00000


--------------------------------------------------------------------------------------------------------


 soft charge-density along one line, spin component           1
         0         1         2         3         4         5         6         7         8         9
 total charge-density along one line
 
 pseudopotential strength for first ion, spin component:           1
 -8.508   0.000   0.000   0.000  -0.000  -8.580   0.000   0.000
  0.000  -8.537   0.000  -0.000  -0.000   0.000  -8.608   0.000
  0.000   0.000  -8.557   0.000  -0.000   0.000   0.000  -8.627
  0.000  -0.000   0.000  -8.537   0.000   0.000  -0.000   0.000
 -0.000  -0.000  -0.000   0.000  -8.508  -0.000  -0.000  -0.000
 -8.580   0.000   0.000   0.000  -0.000  -8.623   0.000   0.000
  0.000  -8.608   0.000  -0.000  -0.000   0.000  -8.650   0.000
  0.000   0.000  -8.627   0.000  -0.000   0.000   0.000  -8.668
  0.000  -0.000   0.000  -8.608   0.000   0.000  -0.000   0.000
 -0.000  -0.000  -0.000   0.000  -8.580  -0.000  -0.000  -0.000
  0.000  -0.000   0.015  -0.000  -0.000   0.000  -0.000   0.015
  0.000  -0.000   0.025  -0.000  -0.000   0.000  -0.000   0.025
  0.000   0.047   0.000  -0.000   0.000   0.000   0.045   0.000
 -0.000  -0.000   0.053   0.000   0.000  -0.000  -0.000   0.051
 -0.000  -0.000  -0.000   0.047   0.000  -0.000  -0.000  -0.000
  0.000   0.056   0.000  -0.000   0.000   0.000   0.054   0.000
 -0.000  -0.000   0.063   0.000   0.000   0.000  -0.000   0.061
 -0.000  -0.000  -0.000   0.056   0.000  -0.000   0.000  -0.000
 total augmentation occupancy for first ion, spin component:           1
  2.138  -0.000   0.000   0.000   0.000  -0.070   0.000   0.000  -0.000   0.000   0.000   0.000   0.000   0.000  -0.000   0.000
 -0.000   2.243  -0.000   0.000  -0.000   0.000  -0.252  -0.000   0.000   0.000  -0.000   0.000   0.005   0.000  -0.000   0.028
  0.000  -0.000   2.667   0.000  -0.000   0.000   0.000  -0.798   0.000   0.000  -1.427   0.407   0.000   0.162   0.000   0.000
  0.000   0.000   0.000   2.243   0.000   0.000   0.000   0.000  -0.252   0.000   0.000   0.000  -0.000   0.000   0.005  -0.000
  0.000  -0.000  -0.000   0.000   2.138   0.000   0.000   0.000   0.000  -0.070   0.000  -0.000   0.000  -0.000  -0.000   0.000
 -0.070   0.000   0.000   0.000   0.000   0.012  -0.000   0.000   0.000   0.000   0.000   0.000  -0.000   0.000  -0.000   0.000
  0.000  -0.252   0.000   0.000   0.000  -0.000   0.264   0.000   0.000   0.000   0.000   0.000  -0.038  -0.000   0.000   0.004
  0.000  -0.000  -0.798   0.000   0.000   0.000   0.000   0.922   0.000  -0.000   1.271  -0.369   0.000  -0.221   0.000   0.000
 -0.000   0.000   0.000  -0.252   0.000   0.000   0.000   0.000   0.264   0.000   0.000   0.000   0.000   0.000  -0.038  -0.000
  0.000   0.000   0.000   0.000  -0.070   0.000   0.000  -0.000   0.000   0.012  -0.000   0.000   0.000   0.000   0.000  -0.000
  0.000  -0.000  -1.427   0.000   0.000   0.000   0.000   1.271   0.000  -0.000   3.536  -0.954   0.000  -0.392  -0.000   0.000
  0.000   0.000   0.407   0.000  -0.000   0.000   0.000  -0.369   0.000   0.000  -0.954   0.259   0.000   0.110   0.000   0.000
  0.000   0.005   0.000  -0.000   0.000  -0.000  -0.038  -0.000   0.000   0.000   0.000  -0.000   0.006   0.000   0.000  -0.001
  0.000   0.000   0.162   0.000  -0.000   0.000  -0.000  -0.221   0.000   0.000  -0.392   0.110   0.000   0.058   0.000  -0.000
 -0.000  -0.000   0.000   0.005  -0.000  -0.000   0.000   0.000  -0.038   0.000  -0.000   0.000   0.000   0.000   0.006   0.000
  0.000   0.028   0.000  -0.000   0.000   0.000   0.004   0.000  -0.000  -0.000   0.000   0.000  -0.001   0.000   0.000   0.001
  0.000   0.000   0.014  -0.000  -0.000   0.000   0.000   0.022   0.000  -0.000   0.031  -0.009   0.000  -0.006   0.000   0.000
  0.000   0.000   0.000   0.028   0.000   0.000   0.000   0.000   0.004   0.000   0.000   0.000   0.000   0.000  -0.001   0.000


------------------------ aborting loop because EDIFF is reached ----------------------------------------


    FORLOC:  cpu time      0.0108: real time      0.0108
    FORHF :  cpu time      0.5170: real time      0.5278
    FORNL :  cpu time      0.0778: real time      0.0787
    FORCOR:  cpu time      1.0032: real time      1.0040
    OFIELD:  cpu time      0.0003: real time      0.0003
 -----------------------------------------------------------------------------
|                                                                             |
|           W    W    AA    RRRRR   N    N  II  N    N   GGGG   !!!           |
|           W    W   A  A   R    R  NN   N  II  NN   N  G    G  !!!           |
|           W    W  A    A  R    R  N N  N  II  N N  N  G       !!!           |
|           W WW W  AAAAAA  RRRRR   N  N N  II  N  N N  G  GGG   !            |
|           WW  WW  A    A  R   R   N   NN  II  N   NN  G    G                |
|           W    W  A    A  R    R  N    N  II  N    N   GGGG   !!!           |
|                                                                             |
|     Specifying the vdW parameters                                           |
|     VDW_S8 = 0.928                                                          |
|     VDW_SR = 1.287                                                          |
|     in the INCAR file will overwrite the defaults for pbe0. Please make     |
|     sure that is what you intended.                                         |
|                                                                             |
 -----------------------------------------------------------------------------


 ---------------------------------------------------------------------------------------------

         DFTD3 V3.0 Rev 1        
 IVDW         = 11
 DF pbe0      
 parameters
 VDW_S6       =    1.0000
 VDW_S8       =    0.9280
 VDW_SR       =    1.2870
 rs18     =    1.0000
 alpha6   =   14.0000
 alpha8   =   16.0000
 k1-k3    =   16.0000    1.3333   -4.0000
 VDW_RADIUS   =   50.2022 A
 VDW_CNRADIUS =   21.1671 A
 Edisp (eV)   -0.00491

 E6    (eV) :    -0.0001
 E8    (eV) :    -0.0048
 % E8        : 98.06
    FORVDW:  cpu time      0.0156: real time      0.0156

 VOLUME and BASIS-vectors are now :
 -----------------------------------------------------------------------------
  energy-cutoff  :      520.00
  volume of cell :     9881.61
      direct lattice vectors                 reciprocal lattice vectors
    21.138852197  0.000000000  0.000000000     0.047306258  0.000000000  0.000000000
     0.000000000 21.138852197  0.000000000     0.000000000  0.047306258  0.000000000
     0.000000000  0.000000000 22.113885220     0.000000000  0.000000000  0.045220457

  length of vectors
    21.138852197 21.138852197 22.113885220     0.047306258  0.047306258  0.045220457


 FORCES acting on ions:
    Electron-Ion                     Ewald-Force                    Non-Local-Force
 -----------------------------------------------------------------------------------------------
   -.252E-12 0.232E-11 -.275E+03   -.390E-16 -.459E-16 0.267E+03   0.324E-23 0.192E-23 0.817E+01
   -.559E-13 0.109E-11 0.275E+03   0.190E-16 0.502E-16 -.267E+03   -.988E-22 0.204E-22 -.817E+01
 -----------------------------------------------------------------------------------------------
   -.323E-12 0.126E-10 0.438E-04   -.200E-16 0.428E-17 0.000E+00   -.955E-22 0.224E-22 -.355E-14
 
 
 POSITION                                       TOTAL-FORCE (eV/Angst)
 -----------------------------------------------------------------------------------
     10.56943     10.56943     15.92762         0.000000      0.000000      0.150930
     10.56943     10.56943     13.38041        -0.000000     -0.000000     -0.150930
 -----------------------------------------------------------------------------------
    total drift:                               -0.000000      0.000000      0.000044


--------------------------------------------------------------------------------------------------------



  FREE ENERGIE OF THE ION-ELECTRON SYSTEM (eV)
  ---------------------------------------------------
  free  energy   TOTEN  =        -2.91422485 eV

  energy  without entropy=       -2.91422485  energy(sigma->0) =       -2.91422485
 


--------------------------------------------------------------------------------------------------------


    POTLOK:  cpu time      1.0708: real time      1.0721


--------------------------------------------------------------------------------------------------------


     LOOP+:  cpu time    155.5155: real time    155.9091
    4ORBIT:  cpu time      0.0000: real time      0.0000

 total amount of memory used by VASP MPI-rank0   277365. kBytes
=======================================================================

   base      :      30000. kBytes
   nonlr-proj:        687. kBytes
   fftplans  :      18387. kBytes
   grid      :      15959. kBytes
   one-center:         15. kBytes
   HF        :         64. kBytes
   wavefun   :        801. kBytes
   fock_wrk  :     211452. kBytes
 
  
  
 General timing and accounting informations for this job:
 ========================================================
  
                  Total CPU time used (sec):      173.111
                            User time (sec):      164.877
                          System time (sec):        8.235
                         Elapsed time (sec):      175.011
  
                   Maximum memory used (kb):     1066908.
                   Average memory used (kb):          N/A
  
                          Minor page faults:       593334
                          Major page faults:            0
                 Voluntary context switches:         7199
