 vasp.6.3.0 20Jan22 (build Apr  1 2022 16:44:48) complex                         
 executed on        HPECrayEX_GCC date 2023.01.06  21:45:41
 running  768 mpi-ranks, with    1 threads/rank
 distrk:  each k-point on  384 cores,    2 groups
 distr:  one band on NCORE=   4 cores,   96 groups


--------------------------------------------------------------------------------------------------------


 INCAR:
   SYSTEM = MgO-rocksalt
   ISMEAR = 0
   SIGMA = 0.05
   EDIFF = 1E-6
   ALGO = ALL
   ISTART = 0
   IBRION = -1
   NSW = 0
   ISYM = 2
   GGA = RE
   LUSE_VDW = .TRUE.
   AGGAC = 0.0
   ENCUT = 520
   PREC = Accurate
   LASPH = .TRUE.
   LREAL = Auto
   ISPIN = 1
   NELM = 200
   NELMIN = 8
   NCORE = 4
   KPAR = 2
   LWAVE = .FALSE.
   LCHARG = .FALSE.

 POTCAR:    PAW_PBE Cu 22Jun2005                  
 -----------------------------------------------------------------------------
|                                                                             |
|               ----> ADVICE to this user running VASP <----                  |
|                                                                             |
|     You have switched on vdW-DFT.                                           |
|     This routine was written and supplied by Jiri Klimes. We recommend      |
|     that you carefully read and cite the following publications:            |
|       J. Klimes, D.R. Bowler, A. Michelides                                 |
|          J. Phys.: Cond Matt. 22 022201 (2010)                              |
|       J. Klimes, D.R. Bowler, A. Michelides                                 |
|          Phys. Rev. B. 83, 195131 (2011)                                    |
|     and references therein.                                                 |
|                                                                             |
 -----------------------------------------------------------------------------

 POTCAR:    PAW_PBE Cu 22Jun2005                  
   SHA256 =  0e71e558f37a4e8407882b4609ceaae59938afaad9ced71dfe8490308a0ab630 Cu/POTCAR             
   COPYR  = (c) Copyright 22Jun2005 Georg Kresse                                                    
   COPYR  = This file is part of the software VASP. Any use, copying, and all other rights are regul
   COPYR  = If you do not have a valid VASP license, you may not use, copy or distribute this file. 
   VRHFIN =Cu: d10 p1                                                                               
   LEXCH  = PE                                                                                      
   EATOM  =  1390.9808 eV,  102.2342 Ry                                                             
                                                                                                    
   TITEL  = PAW_PBE Cu 22Jun2005                                                                    
   LULTRA =        F    use ultrasoft PP ?                                                          
   IUNSCR =        1    unscreen: 0-lin 1-nonlin 2-no                                               
   RPACOR =    2.000    partial core radius                                                         
   POMASS =   63.546; ZVAL   =   11.000    mass and valenz                                          
   RCORE  =    2.300    outmost cutoff radius                                                       
   RWIGS  =    2.200; RWIGS  =    1.164    wigner-seitz radius (au A)                               
   ENMAX  =  295.446; ENMIN  =  221.585 eV                                                          
   ICORE  =        3    local potential                                                             
   LCOR   =        T    correct aug charges                                                         
   LPAW   =        T    paw PP                                                                      
   EAUG   =  586.980                                                                                
   DEXC   =    0.000                                                                                
   RMAX   =    2.344    core radius for proj-oper                                                   
   RAUG   =    1.300    factor for augmentation sphere                                              
   RDEP   =    2.302    radius for radial grids                                                     
   RDEPT  =    1.771    core radius for aug-charge                                                  
                                                                                                    
   Atomic configuration                                                                             
    9 entries                                                                                       
     n  l   j            E        occ.                                                              
     1  0  0.50     -8850.2468   2.0000                                                             
     2  0  0.50     -1062.3498   2.0000                                                             
     2  1  1.50      -916.8226   6.0000                                                             
     3  0  0.50      -114.6929   2.0000                                                             
     3  1  1.50       -72.1325   6.0000                                                             
     3  2  2.50        -5.0394  10.0000                                                             
     4  0  0.50        -4.6097   1.0000                                                             
     4  1  0.50        -4.0817   0.0000                                                             
     4  3  2.50        -1.3606   0.0000                                                             
   Description                                                                                      
     l       E           TYP  RCUT    TYP  RCUT                                                     
     2     -5.0393973     23  2.200                                                                 
     2     10.8846608     23  2.200                                                                 
     0     -4.6097109     23  2.200                                                                 
     0      8.2520465     23  2.200                                                                 
     1     -2.7211652     23  2.200                                                                 
     1     21.7055443     23  2.200                                                                 
     3      2.7211652     23  2.300                                                                 
  local pseudopotential read in
  partial core-charges read in
  partial kinetic energy density read in
  atomic valenz-charges read in
  non local Contribution for L=           2  read in
    real space projection operators read in
  non local Contribution for L=           2  read in
    real space projection operators read in
  non local Contribution for L=           0  read in
    real space projection operators read in
  non local Contribution for L=           0  read in
    real space projection operators read in
  non local Contribution for L=           1  read in
    real space projection operators read in
  non local Contribution for L=           1  read in
    real space projection operators read in
    PAW grid and wavefunctions read in

   number of l-projection  operators is LMAX  =           6
   number of lm-projection operators is LMMAX =          18

 -----------------------------------------------------------------------------
|                                                                             |
|               ----> ADVICE to this user running VASP <----                  |
|                                                                             |
|     You have a (more or less) 'small supercell' and for smaller cells       |
|     it is recommended to use the reciprocal-space projection scheme!        |
|     The real-space optimization is not efficient for small cells and it     |
|     is also less accurate ...                                               |
|     Therefore, set LREAL=.FALSE. in the INCAR file.                         |
|                                                                             |
 -----------------------------------------------------------------------------

 Optimization of the real space projectors (new method)

 maximal supplied QI-value         = 16.25
 optimisation between [QCUT,QGAM] = [ 11.54, 23.24] = [ 37.28,151.24] Ry 
 Optimized for a Real-space Cutoff    1.53 Angstroem

   l    n(q)    QCUT    max X(q) W(low)/X(q) W(high)/X(q)  e(spline) 
   2     10    11.539     4.610    0.96E-04    0.13E-03    0.19E-06
   2     10    11.539     8.522    0.16E-03    0.21E-03    0.28E-06
   0     11    11.539    51.609    0.45E-04    0.31E-04    0.11E-06
   0     11    11.539    27.747    0.39E-04    0.29E-04    0.10E-06
   1     10    11.539    20.408    0.70E-05    0.38E-04    0.18E-06
   1     10    11.539    13.425    0.66E-05    0.34E-04    0.17E-06
 -----------------------------------------------------------------------------
|                                                                             |
|               ----> ADVICE to this user running VASP <----                  |
|                                                                             |
|     You enforced a specific xc type in the INCAR file but a different       |
|     type was found in the POTCAR file.                                      |
|     I HOPE YOU KNOW WHAT YOU ARE DOING!                                     |
|                                                                             |
 -----------------------------------------------------------------------------

  PAW_PBE Cu 22Jun2005                  :
 energy of atom  1       EATOM=-1390.9808
 kinetic energy error for atom=    0.0037 (will be added to EATOM!!)


 POSCAR: Cu
  positions in direct lattice
  velocities in cartesian coordinates
 exchange correlation table for  LEXCH =       40
   RHO(1)=    0.500       N(1)  =     2000
   RHO(2)=  100.500       N(2)  =     4000



--------------------------------------------------------------------------------------------------------


 ion  position               nearest neighbor table
   1  0.545  0.391  0.410-   4 2.34   8 2.39   3 2.40
   2  0.553  0.519  0.571-   8 2.38   6 2.39   7 2.40   4 2.42   5 2.56
   3  0.447  0.421  0.472-   5 2.38   1 2.40   7 2.40   4 2.42   8 2.56
   4  0.537  0.500  0.452-   1 2.34   6 2.34   5 2.42   8 2.42   2 2.42   3 2.42
   5  0.439  0.532  0.515-   3 2.38   6 2.40   7 2.40   4 2.42   2 2.56
   6  0.528  0.608  0.495-   4 2.34   2 2.39   5 2.40
   7  0.464  0.440  0.589-   5 2.40   3 2.40   8 2.40   2 2.40
   8  0.562  0.408  0.527-   2 2.38   1 2.39   7 2.40   4 2.42   3 2.56

  LATTYP: Found a simple cubic cell.
 ALAT       =    20.0000000000
  
  Lattice vectors:
  
 A1 = (  20.0000000000,   0.0000000000,   0.0000000000)
 A2 = (   0.0000000000,  20.0000000000,   0.0000000000)
 A3 = (   0.0000000000,   0.0000000000,  20.0000000000)


Analysis of symmetry for initial positions (statically):
=====================================================================
 Subroutine PRICEL returns:
 Original cell was already a primitive cell.
 

 Routine SETGRP: Setting up the symmetry group for a 
 simple cubic supercell.


 Subroutine GETGRP returns: Found  1 space group operations
 (whereof  1 operations were pure point group operations)
 out of a pool of 48 trial point group operations.


The static configuration has the point symmetry C_1 .


Analysis of symmetry for dynamics (positions and initial velocities):
=====================================================================
 Subroutine PRICEL returns:
 Original cell was already a primitive cell.
 

 Routine SETGRP: Setting up the symmetry group for a 
 simple cubic supercell.


 Subroutine GETGRP returns: Found  1 space group operations
 (whereof  1 operations were pure point group operations)
 out of a pool of 48 trial point group operations.


The dynamic configuration has the point symmetry C_1 .


 Subroutine INISYM returns: Found  1 space group operations
 (whereof  1 operations are pure point group operations),
 and found     1 'primitive' translations


----------------------------------------------------------------------------------------

                                     Primitive cell                                     

  volume of cell :    8000.0000

  direct lattice vectors                    reciprocal lattice vectors
    20.000000000  0.000000000  0.000000000     0.050000000  0.000000000  0.000000000
     0.000000000 20.000000000  0.000000000     0.000000000  0.050000000  0.000000000
     0.000000000  0.000000000 20.000000000     0.000000000  0.000000000  0.050000000

  length of vectors
    20.000000000 20.000000000 20.000000000     0.050000000  0.050000000  0.050000000

  position of ions in fractional coordinates (direct lattice)
     0.545223215  0.391460490  0.409805889
     0.553173738  0.518692647  0.570707376
     0.447141995  0.421406351  0.471727016
     0.537039001  0.500166061  0.452132822
     0.438649310  0.531719611  0.515234916
     0.528485694  0.608479973  0.495418261
     0.463832486  0.440424648  0.589205898
     0.561685515  0.408420362  0.527188990

  ion indices of the primitive-cell ions
   primitive index   ion index
                 1           1
                 2           2
                 3           3
                 4           4
                 5           5
                 6           6
                 7           7
                 8           8

----------------------------------------------------------------------------------------



 KPOINTS: KPOINTS created by Atomic Simulation Env

Automatic generation of k-mesh.
 Grid dimensions read from file:
 generate k-points for:    1    1    1

 Generating k-lattice:

  Cartesian coordinates                     Fractional coordinates (reciprocal lattice)
     0.050000000  0.000000000  0.000000000     1.000000000  0.000000000  0.000000000
     0.000000000  0.050000000  0.000000000     0.000000000  1.000000000  0.000000000
     0.000000000  0.000000000  0.050000000     0.000000000  0.000000000  1.000000000

  Length of vectors
     0.050000000  0.050000000  0.050000000

  Shift w.r.t. Gamma in fractional coordinates (k-lattice)
     0.000000000  0.000000000  0.000000000

 
 Subroutine IBZKPT returns following result:
 ===========================================
 
 Found      1 irreducible k-points:
 
 Following reciprocal coordinates:
            Coordinates               Weight
  0.000000  0.000000  0.000000      1.000000
 
 Following cartesian coordinates:
            Coordinates               Weight
  0.000000  0.000000  0.000000      1.000000
 


--------------------------------------------------------------------------------------------------------




 Dimension of arrays:
   k-points           NKPTS =      1   k-points in BZ     NKDIM =      1   number of bands    NBANDS=     96
   number of dos      NEDOS =    301   number of ions     NIONS =      8
   non local maximal  LDIM  =      6   non local SUM 2l+1 LMDIM =     18
   total plane-waves  NPLWV = ******
   max r-space proj   IRMAX =   6426   max aug-charges    IRDMAX=  12418
   dimension x,y,z NGX =   150 NGY =  150 NGZ =  150
   dimension x,y,z NGXF=   300 NGYF=  300 NGZF=  300
   support grid    NGXF=   300 NGYF=  300 NGZF=  300
   ions per type =               8
   NGX,Y,Z   is equivalent  to a cutoff of  12.47, 12.47, 12.47 a.u.
   NGXF,Y,Z  is equivalent  to a cutoff of  24.94, 24.94, 24.94 a.u.

 SYSTEM =  MgO-rocksalt                            
 POSCAR =  Cu                                      

 Startparameter for this run:
   NWRITE =      2    write-flag & timer
   PREC   = accura    normal or accurate (medium, high low for compatibility)
   ISTART =      0    job   : 0-new  1-cont  2-samecut
   ICHARG =      2    charge: 1-file 2-atom 10-const
   ISPIN  =      1    spin polarized calculation?
   LNONCOLLINEAR =      F non collinear calculations
   LSORBIT =      F    spin-orbit coupling
   INIWAV =      1    electr: 0-lowe 1-rand  2-diag
   LASPH  =      T    aspherical Exc in radial PAW
 Electronic Relaxation 1
   ENCUT  =  520.0 eV  38.22 Ry    6.18 a.u.  37.19 37.19 37.19*2*pi/ulx,y,z
   ENINI  =  520.0     initial cutoff
   ENAUG  =  587.0 eV  augmentation charge cutoff
   NELM   =    200;   NELMIN=  8; NELMDL= -5     # of ELM steps 
   EDIFF  = 0.1E-05   stopping-criterion for ELM
   LREAL  =      T    real-space projection
   NLSPLINE    = F    spline interpolate recip. space projectors
   LCOMPAT=      F    compatible to vasp.4.4
   GGA_COMPAT  = T    GGA compatible to vasp.4.4-vasp.4.6
   LMAXPAW     = -100 max onsite density
   LMAXMIX     =    2 max onsite mixed and CHGCAR
   VOSKOWN=      0    Vosko Wilk Nusair interpolation
   ROPT   =   -0.00025
 Ionic relaxation
   EDIFFG = 0.1E-04   stopping-criterion for IOM
   NSW    =      0    number of steps for IOM
   NBLOCK =      1;   KBLOCK =      1    inner block; outer block 
   IBRION =     -1    ionic relax: 0-MD 1-quasi-New 2-CG
   NFREE  =      0    steps in history (QN), initial steepest desc. (CG)
   ISIF   =      2    stress and relaxation
   IWAVPR =     10    prediction:  0-non 1-charg 2-wave 3-comb
   ISYM   =      2    0-nonsym 1-usesym 2-fastsym
   LCORR  =      T    Harris-Foulkes like correction to forces

   POTIM  = 0.5000    time-step for ionic-motion
   TEIN   =    0.0    initial temperature
   TEBEG  =    0.0;   TEEND  =   0.0 temperature during run
   SMASS  =  -3.00    Nose mass-parameter (am)
   estimated Nose-frequenzy (Omega)   =  0.10E-29 period in steps = 0.13E+47 mass=  -0.914E-26a.u.
   SCALEE = 1.0000    scale energy and forces
   NPACO  =    256;   APACO  = 10.0  distance and # of slots for P.C.
   PSTRESS=    0.0 pullay stress

  Mass of Ions in am
   POMASS =  63.55
  Ionic Valenz
   ZVAL   =  11.00
  Atomic Wigner-Seitz radii
   RWIGS  =  -1.00
  virtual crystal weights 
   VCA    =   1.00
   NELECT =      88.0000    total number of electrons
   NUPDOWN=      -1.0000    fix difference up-down

 DOS related values:
   EMIN   =  10.00;   EMAX   =-10.00  energy-range for DOS
   EFERMI =   0.00
   ISMEAR =     0;   SIGMA  =   0.05  broadening in eV -4-tet -1-fermi 0-gaus

 Electronic relaxation 2 (details)
   IALGO  =     58    algorithm
   LDIAG  =      T    sub-space diagonalisation (order eigenvalues)
   LSUBROT=      F    optimize rotation matrix (better conditioning)
   TURBO    =      0    0=normal 1=particle mesh
   IRESTART =      0    0=no restart 2=restart with 2 vectors
   NREBOOT  =      0    no. of reboots
   NMIN     =      0    reboot dimension
   EREF     =   0.00    reference energy to select bands
   IMIX   =      4    mixing-type and parameters
     AMIX     =   0.40;   BMIX     =  1.00
     AMIX_MAG =   1.60;   BMIX_MAG =  1.00
     AMIN     =   0.10
     WC   =   100.;   INIMIX=   1;  MIXPRE=   1;  MAXMIX= -45

 Intra band minimization:
   WEIMIN = 0.0000     energy-eigenvalue tresh-hold
   EBREAK =  0.26E-08  absolut break condition
   DEPER  =   0.30     relativ break condition  

   TIME   =   0.40     timestep for ELM

  volume/ion in A,a.u.               =    1000.00      6748.33
  Fermi-wavevector in a.u.,A,eV,Ry     =   0.364087  0.688026  1.803584  0.132560
  Thomas-Fermi vector in A             =   1.286639

 Write flags
   LWAVE        =      F    write WAVECAR
   LDOWNSAMPLE  =      F    k-point downsampling of WAVECAR
   LCHARG       =      F    write CHGCAR
   LVTOT        =      F    write LOCPOT, total local potential
   LVHAR        =      F    write LOCPOT, Hartree potential only
   LELF         =      F    write electronic localiz. function (ELF)
   LORBIT       =      0    0 simple, 1 ext, 2 COOP (PROOUT), +10 PAW based schemes


 Dipole corrections
   LMONO  =      F    monopole corrections only (constant potential shift)
   LDIPOL =      F    correct potential (dipole corrections)
   IDIPOL =      0    1-x, 2-y, 3-z, 4-all directions 
   EPSILON=  1.0000000 bulk dielectric constant

 Exchange correlation treatment:
   GGA     =    RE    GGA type
   LEXCH   =    40    internal setting for exchange type
   LIBXC   =     F    Libxc                    
   VOSKOWN =     0    Vosko Wilk Nusair interpolation
   LHFCALC =     F    Hartree Fock is set to
   LHFONE  =     F    Hartree Fock one center treatment
   AEXX    =    0.0000 exact exchange contribution

 vdW DFT:
   LUSE_VDW   =     T    switch on vdW DFT
   Zab_VDW    =-.8491    correlation parameter
   PARAM1     =0.1234
   PARAM2     =1.0000
   PARAM3     =0.0000
   -- rVV10 --
   BPARAM     = 6.3000
   CPARAM     = 0.0093

 Linear response parameters
   LEPSILON=     F    determine dielectric tensor
   LRPA    =     F    only Hartree local field effects (RPA)
   LNABLA  =     F    use nabla operator in PAW spheres
   LVEL    =     F    velocity operator in full k-point grid
   CSHIFT  =0.1000    complex shift for real part using Kramers Kronig
   OMEGAMAX=  -1.0    maximum frequency
   DEG_THRESHOLD= 0.2000000E-02 threshold for treating states as degnerate
   RTIME   =   -0.100 relaxation time in fs
  (WPLASMAI=    0.000 imaginary part of plasma frequency in eV, 0.658/RTIME)
   DFIELD  = 0.0000000 0.0000000 0.0000000 field for delta impulse in time

  Optional k-point grid parameters
   LKPOINTS_OPT  =     F    use optional k-point grid
   KPOINTS_OPT_MODE=     1    mode for optional k-point grid

 Orbital magnetization related:
   ORBITALMAG=     F  switch on orbital magnetization
   LCHIMAG   =     F  perturbation theory with respect to B field
   DQ        =  0.001000  dq finite difference perturbation B field
   LLRAUG    =     F  two centre corrections for induced B field



--------------------------------------------------------------------------------------------------------


 Static calculation
 charge density and potential will be updated during run
 non-spin polarized calculation
 Conjugate gradient for all bands (Freysoldt, et al. PRB 79, 241103 (2009))
 preconditioned conjugated gradient                                        
 perform sub-space diagonalisation
    before iterative eigenvector-optimisation
 modified Broyden-mixing scheme, WC =      100.0
 initial mixing is a Kerker type mixing with AMIX =  0.4000 and BMIX =      1.0000
 Hartree-type preconditioning will be used
 using additional bands           52
 real space projection scheme for non local part
 use partial core corrections
 no Harris-corrections to forces 
 use gradient corrections 
 use of overlap-Matrix (Vanderbilt PP)
 Gauss-broadening in eV      SIGMA  =   0.05


--------------------------------------------------------------------------------------------------------


  energy-cutoff  :      520.00
  volume of cell :     8000.00
      direct lattice vectors                 reciprocal lattice vectors
    20.000000000  0.000000000  0.000000000     0.050000000  0.000000000  0.000000000
     0.000000000 20.000000000  0.000000000     0.000000000  0.050000000  0.000000000
     0.000000000  0.000000000 20.000000000     0.000000000  0.000000000  0.050000000

  length of vectors
    20.000000000 20.000000000 20.000000000     0.050000000  0.050000000  0.050000000



 k-points in units of 2pi/SCALE and weight: KPOINTS created by Atomic Simulation Env
   0.00000000  0.00000000  0.00000000       1.000

 k-points in reciprocal lattice and weights: KPOINTS created by Atomic Simulation Env
   0.00000000  0.00000000  0.00000000       1.000

 position of ions in fractional coordinates (direct lattice) 
   0.54522321  0.39146049  0.40980589
   0.55317374  0.51869265  0.57070738
   0.44714200  0.42140635  0.47172702
   0.53703900  0.50016606  0.45213282
   0.43864931  0.53171961  0.51523492
   0.52848569  0.60847997  0.49541826
   0.46383249  0.44042465  0.58920590
   0.56168552  0.40842036  0.52718899

 position of ions in cartesian coordinates  (Angst):
  10.90446429  7.82920980  8.19611778
  11.06347477 10.37385293 11.41414752
   8.94283991  8.42812702  9.43454031
  10.74078003 10.00332123  9.04265643
   8.77298620 10.63439221 10.30469832
  10.56971389 12.16959946  9.90836523
   9.27664973  8.80849296 11.78411796
  11.23371030  8.16840723 10.54377980



--------------------------------------------------------------------------------------------------------


 k-point   1 :   0.0000 0.0000 0.0000  plane waves:  215503

 maximum and minimum number of plane-waves per node :     53900    53857

 maximum number of plane-waves:    215503
 maximum index in each direction: 
   IXMAX=   37   IYMAX=   37   IZMAX=   37
   IXMIN=  -37   IYMIN=  -37   IZMIN=  -37


 real space projection operators:
  total allocation   :       6965.86 KBytes
  max/ min on nodes  :       1743.19       1739.25


 parallel 3D FFT for wavefunctions:
    minimum data exchange during FFTs selected (reduces bandwidth)
 parallel 3D FFT for charge:
    minimum data exchange during FFTs selected (reduces bandwidth)


 total amount of memory used by VASP MPI-rank0   102622. kBytes
=======================================================================

   base      :      30000. kBytes
   nonlr-proj:       3015. kBytes
   fftplans  :      28354. kBytes
   grid      :      38630. kBytes
   one-center:         31. kBytes
   wavefun   :       2592. kBytes

     INWAV:  cpu time      0.0000: real time      0.0000
 Broyden mixing: mesh for mixing (old mesh)
   NGX = 75   NGY = 75   NGZ = 75
  (NGX  =300   NGY  =300   NGZ  =300)
  gives a total of 421875 points

 initial charge density was supplied:
 charge density of overlapping atoms calculated
 number of electron      88.0000000 magnetization 
 keeping initial charge density in first step


--------------------------------------------------------------------------------------------------------


 Maximum index for non-local projection operator         1566
 Maximum index for augmentation-charges            0 (set IRDMAX)


--------------------------------------------------------------------------------------------------------


 First call to EWALD:  gamma=   0.089
 Maximum number of real-space cells 3x 3x 3
 Maximum number of reciprocal cells 3x 3x 3

    FEWALD:  cpu time      0.0012: real time      0.0012


--------------------------------------- Iteration      1(   1)  ---------------------------------------


vdW kernel read from vdw_kernel.bindat
  0.0000  0.2424  0.5071  0.7962  1.1119  1.4567  1.8333  2.2446  2.6937  3.1842
  3.7199  4.3049  4.9438  5.6415  6.4036  7.2358  8.1446  9.1372 10.2212 11.4050
 12.6979 14.1099 15.6519 17.3360 19.1751 21.1837 23.3773 25.7729 28.3892 31.2465
 34.3669 37.7748 41.4965 45.5611 50.0000

    POTLOK:  cpu time      1.8039: real time      1.8140
    SETDIJ:  cpu time      0.1598: real time      0.1598
    TRIAL :  cpu time      0.5396: real time      0.5398
    CORREC:  cpu time      0.0011: real time      0.0011
    --------------------------------------------
      LOOP:  cpu time      2.5056: real time      2.5159

 eigenvalue-minimisations  :   192
 total energy-change (2. order) : 0.5531599E+03  (-0.2019750E+04)
 number of electron      88.0000000 magnetization 
 augmentation part       88.0000000 magnetization 

 Free energy of the ion-electron system (eV)
  ---------------------------------------------------
  alpha Z        PSCENC =         5.85062430
  Ewald energy   TEWEN  =      9663.91341305
  -Hartree energ DENC   =    -19798.61946212
  -exchange      EXHF   =         0.00000000
  -V(xc)+E(xc)   XCENC  =       348.52999034
  PAW double counting   =      9842.10258874   -10677.79802023
  entropy T*S    EENTRO =        -0.09819724
  eigenvalues    EBANDS =        -6.06202336
  atomic energy  EATOM  =     11175.34100013
  ---------------------------------------------------
  free energy    TOTEN  =       553.15991358 eV

  energy without entropy =      553.25811083  energy(sigma->0) =      553.20901221


--------------------------------------------------------------------------------------------------------




--------------------------------------- Iteration      1(   2)  ---------------------------------------


    TRIAL :  cpu time      0.5388: real time      0.5390
    CORREC:  cpu time      0.0006: real time      0.0006
    --------------------------------------------
      LOOP:  cpu time      0.5427: real time      0.5469

 eigenvalue-minimisations  :   192
 total energy-change (2. order) :-0.5283715E+03  (-0.5268016E+03)
 number of electron      88.0000000 magnetization 
 augmentation part       88.0000000 magnetization 

 Free energy of the ion-electron system (eV)
  ---------------------------------------------------
  alpha Z        PSCENC =         5.85062430
  Ewald energy   TEWEN  =      9663.91341305
  -Hartree energ DENC   =    -19798.61946212
  -exchange      EXHF   =         0.00000000
  -V(xc)+E(xc)   XCENC  =       348.52999034
  PAW double counting   =      9842.10258874   -10677.79802023
  entropy T*S    EENTRO =        -0.00000000
  eigenvalues    EBANDS =      -534.53171887
  atomic energy  EATOM  =     11175.34100013
  ---------------------------------------------------
  free energy    TOTEN  =        24.78841532 eV

  energy without entropy =       24.78841532  energy(sigma->0) =       24.78841532


--------------------------------------------------------------------------------------------------------




--------------------------------------- Iteration      1(   3)  ---------------------------------------


    TRIAL :  cpu time      0.5484: real time      0.5484
    CORREC:  cpu time      0.0007: real time      0.0007
    --------------------------------------------
      LOOP:  cpu time      0.5523: real time      0.5560

 eigenvalue-minimisations  :   192
 total energy-change (2. order) :-0.1810684E+02  (-0.1810684E+02)
 number of electron      88.0000000 magnetization 
 augmentation part       88.0000000 magnetization 

 Free energy of the ion-electron system (eV)
  ---------------------------------------------------
  alpha Z        PSCENC =         5.85062430
  Ewald energy   TEWEN  =      9663.91341305
  -Hartree energ DENC   =    -19798.61946212
  -exchange      EXHF   =         0.00000000
  -V(xc)+E(xc)   XCENC  =       348.52999034
  PAW double counting   =      9842.10258874   -10677.79802023
  entropy T*S    EENTRO =        -0.00000000
  eigenvalues    EBANDS =      -552.63856121
  atomic energy  EATOM  =     11175.34100013
  ---------------------------------------------------
  free energy    TOTEN  =         6.68157298 eV

  energy without entropy =        6.68157298  energy(sigma->0) =        6.68157298


--------------------------------------------------------------------------------------------------------




--------------------------------------- Iteration      1(   4)  ---------------------------------------


    TRIAL :  cpu time      1.8978: real time      1.8980
    CORREC:  cpu time      0.0008: real time      0.0008
    --------------------------------------------
      LOOP:  cpu time      1.9051: real time      1.9056

 eigenvalue-minimisations  :   384
 total energy-change (2. order) :-0.4749908E+00  (-0.4749908E+00)
 number of electron      88.0000000 magnetization 
 augmentation part       88.0000000 magnetization 

 Free energy of the ion-electron system (eV)
  ---------------------------------------------------
  alpha Z        PSCENC =         5.85062430
  Ewald energy   TEWEN  =      9663.91341305
  -Hartree energ DENC   =    -19798.61946212
  -exchange      EXHF   =         0.00000000
  -V(xc)+E(xc)   XCENC  =       348.52999034
  PAW double counting   =      9842.10258874   -10677.79802023
  entropy T*S    EENTRO =        -0.00000000
  eigenvalues    EBANDS =      -553.11355197
  atomic energy  EATOM  =     11175.34100013
  ---------------------------------------------------
  free energy    TOTEN  =         6.20658222 eV

  energy without entropy =        6.20658222  energy(sigma->0) =        6.20658222


--------------------------------------------------------------------------------------------------------




--------------------------------------- Iteration      1(   5)  ---------------------------------------


    TRIAL :  cpu time      0.5454: real time      0.5455
    CORREC:  cpu time      0.0004: real time      0.0004
    CHARGE:  cpu time      0.0945: real time      0.0946
    --------------------------------------------
      LOOP:  cpu time      0.6436: real time      0.6479

 eigenvalue-minimisations  :   192
 total energy-change (2. order) :-0.6868507E-04  (-0.6868485E-04)
 number of electron      87.9999960 magnetization 
 augmentation part       55.0503681 magnetization 

 Free energy of the ion-electron system (eV)
  ---------------------------------------------------
  alpha Z        PSCENC =         5.85062430
  Ewald energy   TEWEN  =      9663.91341305
  -Hartree energ DENC   =    -19798.61946212
  -exchange      EXHF   =         0.00000000
  -V(xc)+E(xc)   XCENC  =       348.52999034
  PAW double counting   =      9842.10258874   -10677.79802023
  entropy T*S    EENTRO =        -0.00000000
  eigenvalues    EBANDS =      -553.11362065
  atomic energy  EATOM  =     11175.34100013
  ---------------------------------------------------
  free energy    TOTEN  =         6.20651354 eV

  energy without entropy =        6.20651354  energy(sigma->0) =        6.20651354


--------------------------------------------------------------------------------------------------------




--------------------------------------- Iteration      1(   6)  ---------------------------------------


    POTLOK:  cpu time      1.2254: real time      1.2256
    SETDIJ:  cpu time      0.1577: real time      0.1577
    TRIAL :  cpu time      1.3939: real time      1.3950
    CORREC:  cpu time      1.5532: real time      1.5534
    CHARGE:  cpu time      0.0912: real time      0.0912
    --------------------------------------------
      LOOP:  cpu time      4.4278: real time      4.4295

 eigenvalue-minimisations  :     0
 total energy-change (2. order) : 0.8350098E+01  (-0.4568740E+01)
 number of electron      87.9999959 magnetization 
 augmentation part       56.6959692 magnetization 

 Free energy of the ion-electron system (eV)
  ---------------------------------------------------
  alpha Z        PSCENC =         5.85062430
  Ewald energy   TEWEN  =      9663.91341305
  -Hartree energ DENC   =    -19716.66528323
  -exchange      EXHF   =         0.00000000
  -V(xc)+E(xc)   XCENC  =       337.07943504
  PAW double counting   =     10303.20497129   -11103.58222144
  entropy T*S    EENTRO =        -0.00000000
  eigenvalues    EBANDS =      -650.58532776
  atomic energy  EATOM  =     11175.34100013
  ---------------------------------------------------
  free energy    TOTEN  =        14.55661136 eV

  energy without entropy =       14.55661136  energy(sigma->0) =       14.55661136


--------------------------------------------------------------------------------------------------------




--------------------------------------- Iteration      1(   7)  ---------------------------------------


    POTLOK:  cpu time      1.2426: real time      1.2427
    SETDIJ:  cpu time      0.1453: real time      0.1453
    TRIAL :  cpu time      0.2047: real time      0.2047
    CORREC:  cpu time      1.5530: real time      1.5531
    CHARGE:  cpu time      0.0918: real time      0.0918
    --------------------------------------------
      LOOP:  cpu time      3.2455: real time      3.2460

 eigenvalue-minimisations  :     0
 total energy-change (2. order) :-0.4278872E+01  (-0.1022424E+01)
 number of electron      87.9999960 magnetization 
 augmentation part       56.4785115 magnetization 

 Free energy of the ion-electron system (eV)
  ---------------------------------------------------
  alpha Z        PSCENC =         5.85062430
  Ewald energy   TEWEN  =      9663.91341305
  -Hartree energ DENC   =    -19886.35224297
  -exchange      EXHF   =         0.00000000
  -V(xc)+E(xc)   XCENC  =       345.24655966
  PAW double counting   =     10395.90412915   -11257.84012304
  entropy T*S    EENTRO =        -0.00000000
  eigenvalues    EBANDS =      -431.78562107
  atomic energy  EATOM  =     11175.34100013
  ---------------------------------------------------
  free energy    TOTEN  =        10.27773920 eV

  energy without entropy =       10.27773920  energy(sigma->0) =       10.27773920


--------------------------------------------------------------------------------------------------------




--------------------------------------- Iteration      1(   8)  ---------------------------------------


    POTLOK:  cpu time      1.2436: real time      1.2437
    SETDIJ:  cpu time      0.1464: real time      0.1464
    TRIAL :  cpu time      0.2045: real time      0.2046
    CORREC:  cpu time      1.5560: real time      1.5560
    CHARGE:  cpu time      0.0886: real time      0.0886
    --------------------------------------------
      LOOP:  cpu time      3.2414: real time      3.2461

 eigenvalue-minimisations  :     0
 total energy-change (2. order) :-0.1023591E+01  (-0.2489094E+00)
 number of electron      87.9999959 magnetization 
 augmentation part       56.6503797 magnetization 

 Free energy of the ion-electron system (eV)
  ---------------------------------------------------
  alpha Z        PSCENC =         5.85062430
  Ewald energy   TEWEN  =      9663.91341305
  -Hartree energ DENC   =    -19763.54658106
  -exchange      EXHF   =         0.00000000
  -V(xc)+E(xc)   XCENC  =       343.42626779
  PAW double counting   =     10331.92070528   -11181.49688145
  entropy T*S    EENTRO =        -0.00000000
  eigenvalues    EBANDS =      -566.15439949
  atomic energy  EATOM  =     11175.34100013
  ---------------------------------------------------
  free energy    TOTEN  =         9.25414853 eV

  energy without entropy =        9.25414853  energy(sigma->0) =        9.25414853


--------------------------------------------------------------------------------------------------------




--------------------------------------- Iteration      1(   9)  ---------------------------------------


    POTLOK:  cpu time      1.2432: real time      1.2432
    SETDIJ:  cpu time      0.1474: real time      0.1475
    TRIAL :  cpu time      0.2046: real time      0.2046
    CORREC:  cpu time      1.5522: real time      1.5522
    CHARGE:  cpu time      0.0900: real time      0.0900
    --------------------------------------------
      LOOP:  cpu time      3.2396: real time      3.2446

 eigenvalue-minimisations  :     0
 total energy-change (2. order) :-0.2468110E+00  (-0.1635538E+00)
 number of electron      87.9999959 magnetization 
 augmentation part       56.6477672 magnetization 

 Free energy of the ion-electron system (eV)
  ---------------------------------------------------
  alpha Z        PSCENC =         5.85062430
  Ewald energy   TEWEN  =      9663.91341305
  -Hartree energ DENC   =    -19777.01634721
  -exchange      EXHF   =         0.00000000
  -V(xc)+E(xc)   XCENC  =       344.37934358
  PAW double counting   =     10346.60174301   -11200.98301733
  entropy T*S    EENTRO =        -0.00000000
  eigenvalues    EBANDS =      -549.07942201
  atomic energy  EATOM  =     11175.34100013
  ---------------------------------------------------
  free energy    TOTEN  =         9.00733751 eV

  energy without entropy =        9.00733751  energy(sigma->0) =        9.00733751


--------------------------------------------------------------------------------------------------------




--------------------------------------- Iteration      1(  10)  ---------------------------------------


    POTLOK:  cpu time      1.2441: real time      1.2441
    SETDIJ:  cpu time      0.1444: real time      0.1444
    TRIAL :  cpu time      0.2042: real time      0.2042
    CORREC:  cpu time      1.5529: real time      1.5530
    CHARGE:  cpu time      0.0915: real time      0.0915
    --------------------------------------------
      LOOP:  cpu time      3.2437: real time      3.2440

 eigenvalue-minimisations  :     0
 total energy-change (2. order) :-0.1626601E+00  (-0.5719858E-01)
 number of electron      87.9999960 magnetization 
 augmentation part       56.5853442 magnetization 

 Free energy of the ion-electron system (eV)
  ---------------------------------------------------
  alpha Z        PSCENC =         5.85062430
  Ewald energy   TEWEN  =      9663.91341305
  -Hartree energ DENC   =    -19783.08986255
  -exchange      EXHF   =         0.00000000
  -V(xc)+E(xc)   XCENC  =       344.50433776
  PAW double counting   =     10354.76111361   -11207.09152621
  entropy T*S    EENTRO =        -0.00000000
  eigenvalues    EBANDS =      -545.34442264
  atomic energy  EATOM  =     11175.34100013
  ---------------------------------------------------
  free energy    TOTEN  =         8.84467744 eV

  energy without entropy =        8.84467744  energy(sigma->0) =        8.84467744


--------------------------------------------------------------------------------------------------------




--------------------------------------- Iteration      1(  11)  ---------------------------------------


    POTLOK:  cpu time      1.2412: real time      1.2412
    SETDIJ:  cpu time      0.1491: real time      0.1491
    TRIAL :  cpu time      0.2059: real time      0.2059
    CORREC:  cpu time      1.5572: real time      1.5573
    CHARGE:  cpu time      0.0907: real time      0.0907
    --------------------------------------------
      LOOP:  cpu time      3.2471: real time      3.2513

 eigenvalue-minimisations  :     0
 total energy-change (2. order) :-0.5722840E-01  (-0.3841940E-01)
 number of electron      87.9999959 magnetization 
 augmentation part       56.6841530 magnetization 

 Free energy of the ion-electron system (eV)
  ---------------------------------------------------
  alpha Z        PSCENC =         5.85062430
  Ewald energy   TEWEN  =      9663.91341305
  -Hartree energ DENC   =    -19776.90388318
  -exchange      EXHF   =         0.00000000
  -V(xc)+E(xc)   XCENC  =       344.24827097
  PAW double counting   =     10350.27743181   -11198.68889266
  entropy T*S    EENTRO =        -0.00000000
  eigenvalues    EBANDS =      -555.25051538
  atomic energy  EATOM  =     11175.34100013
  ---------------------------------------------------
  free energy    TOTEN  =         8.78744904 eV

  energy without entropy =        8.78744904  energy(sigma->0) =        8.78744904


--------------------------------------------------------------------------------------------------------




--------------------------------------- Iteration      1(  12)  ---------------------------------------


    POTLOK:  cpu time      1.2396: real time      1.2402
    SETDIJ:  cpu time      0.1499: real time      0.1499
    TRIAL :  cpu time      0.2048: real time      0.2048
    CORREC:  cpu time      1.5556: real time      1.5557
    CHARGE:  cpu time      0.0916: real time      0.0916
    --------------------------------------------
      LOOP:  cpu time      3.2435: real time      3.2494

 eigenvalue-minimisations  :     0
 total energy-change (2. order) :-0.3812582E-01  (-0.1116092E-01)
 number of electron      87.9999960 magnetization 
 augmentation part       56.6578316 magnetization 

 Free energy of the ion-electron system (eV)
  ---------------------------------------------------
  alpha Z        PSCENC =         5.85062430
  Ewald energy   TEWEN  =      9663.91341305
  -Hartree energ DENC   =    -19791.42806869
  -exchange      EXHF   =         0.00000000
  -V(xc)+E(xc)   XCENC  =       344.78497084
  PAW double counting   =     10354.48565752   -11205.54080925
  entropy T*S    EENTRO =        -0.00000000
  eigenvalues    EBANDS =      -538.65746467
  atomic energy  EATOM  =     11175.34100013
  ---------------------------------------------------
  free energy    TOTEN  =         8.74932321 eV

  energy without entropy =        8.74932321  energy(sigma->0) =        8.74932321


--------------------------------------------------------------------------------------------------------




--------------------------------------- Iteration      1(  13)  ---------------------------------------


    POTLOK:  cpu time      1.2394: real time      1.2395
    SETDIJ:  cpu time      0.1497: real time      0.1497
    TRIAL :  cpu time      0.2044: real time      0.2045
    CORREC:  cpu time      1.5537: real time      1.5538
    CHARGE:  cpu time      0.0896: real time      0.0896
    --------------------------------------------
      LOOP:  cpu time      3.2439: real time      3.2446

 eigenvalue-minimisations  :     0
 total energy-change (2. order) :-0.1115859E-01  (-0.4453699E-02)
 number of electron      87.9999959 magnetization 
 augmentation part       56.6836324 magnetization 

 Free energy of the ion-electron system (eV)
  ---------------------------------------------------
  alpha Z        PSCENC =         5.85062430
  Ewald energy   TEWEN  =      9663.91341305
  -Hartree energ DENC   =    -19783.74839985
  -exchange      EXHF   =         0.00000000
  -V(xc)+E(xc)   XCENC  =       344.58281603
  PAW double counting   =     10346.46629685   -11196.16014887
  entropy T*S    EENTRO =        -0.00000000
  eigenvalues    EBANDS =      -547.50743702
  atomic energy  EATOM  =     11175.34100013
  ---------------------------------------------------
  free energy    TOTEN  =         8.73816462 eV

  energy without entropy =        8.73816462  energy(sigma->0) =        8.73816462


--------------------------------------------------------------------------------------------------------




--------------------------------------- Iteration      1(  14)  ---------------------------------------


    POTLOK:  cpu time      1.2390: real time      1.2391
    SETDIJ:  cpu time      0.1524: real time      0.1524
    TRIAL :  cpu time      0.2041: real time      0.2041
    CORREC:  cpu time      1.5494: real time      1.5494
    CHARGE:  cpu time      0.0918: real time      0.0918
    --------------------------------------------
      LOOP:  cpu time      3.2448: real time      3.2454

 eigenvalue-minimisations  :     0
 total energy-change (2. order) :-0.4445336E-02  (-0.1145699E-02)
 number of electron      87.9999959 magnetization 
 augmentation part       56.6902215 magnetization 

 Free energy of the ion-electron system (eV)
  ---------------------------------------------------
  alpha Z        PSCENC =         5.85062430
  Ewald energy   TEWEN  =      9663.91341305
  -Hartree energ DENC   =    -19785.87949447
  -exchange      EXHF   =         0.00000000
  -V(xc)+E(xc)   XCENC  =       344.68921072
  PAW double counting   =     10346.02079030   -11196.61975516
  entropy T*S    EENTRO =        -0.00000000
  eigenvalues    EBANDS =      -544.58206958
  atomic energy  EATOM  =     11175.34100013
  ---------------------------------------------------
  free energy    TOTEN  =         8.73371929 eV

  energy without entropy =        8.73371929  energy(sigma->0) =        8.73371929


--------------------------------------------------------------------------------------------------------




--------------------------------------- Iteration      1(  15)  ---------------------------------------


    POTLOK:  cpu time      1.2287: real time      1.2289
    SETDIJ:  cpu time      0.1587: real time      0.1587
    TRIAL :  cpu time      0.2040: real time      0.2040
    CORREC:  cpu time      1.5491: real time      1.5492
    CHARGE:  cpu time      0.0899: real time      0.0899
    --------------------------------------------
      LOOP:  cpu time      3.2374: real time      3.2379

 eigenvalue-minimisations  :     0
 total energy-change (2. order) :-0.1145758E-02  (-0.4803576E-03)
 number of electron      87.9999959 magnetization 
 augmentation part       56.6827672 magnetization 

 Free energy of the ion-electron system (eV)
  ---------------------------------------------------
  alpha Z        PSCENC =         5.85062430
  Ewald energy   TEWEN  =      9663.91341305
  -Hartree energ DENC   =    -19787.27736746
  -exchange      EXHF   =         0.00000000
  -V(xc)+E(xc)   XCENC  =       344.72230610
  PAW double counting   =     10346.98586138   -11197.83494040
  entropy T*S    EENTRO =        -0.00000000
  eigenvalues    EBANDS =      -542.96832357
  atomic energy  EATOM  =     11175.34100013
  ---------------------------------------------------
  free energy    TOTEN  =         8.73257353 eV

  energy without entropy =        8.73257353  energy(sigma->0) =        8.73257353


--------------------------------------------------------------------------------------------------------




--------------------------------------- Iteration      1(  16)  ---------------------------------------


    POTLOK:  cpu time      1.2236: real time      1.2236
    SETDIJ:  cpu time      0.1609: real time      0.1609
    TRIAL :  cpu time      0.2048: real time      0.2049
    CORREC:  cpu time      1.5495: real time      1.5496
    CHARGE:  cpu time      0.0905: real time      0.0905
    --------------------------------------------
      LOOP:  cpu time      3.2330: real time      3.2372

 eigenvalue-minimisations  :     0
 total energy-change (2. order) :-0.4800555E-03  (-0.1985681E-03)
 number of electron      87.9999959 magnetization 
 augmentation part       56.6880342 magnetization 

 Free energy of the ion-electron system (eV)
  ---------------------------------------------------
  alpha Z        PSCENC =         5.85062430
  Ewald energy   TEWEN  =      9663.91341305
  -Hartree energ DENC   =    -19786.39160003
  -exchange      EXHF   =         0.00000000
  -V(xc)+E(xc)   XCENC  =       344.68308946
  PAW double counting   =     10346.94325105   -11197.48751538
  entropy T*S    EENTRO =        -0.00000000
  eigenvalues    EBANDS =      -544.12016911
  atomic energy  EATOM  =     11175.34100013
  ---------------------------------------------------
  free energy    TOTEN  =         8.73209347 eV

  energy without entropy =        8.73209347  energy(sigma->0) =        8.73209347


--------------------------------------------------------------------------------------------------------




--------------------------------------- Iteration      1(  17)  ---------------------------------------


    POTLOK:  cpu time      1.2210: real time      1.2211
    SETDIJ:  cpu time      0.1654: real time      0.1654
    TRIAL :  cpu time      0.2042: real time      0.2042
    CORREC:  cpu time      1.5534: real time      1.5535
    CHARGE:  cpu time      0.0899: real time      0.0899
    --------------------------------------------
      LOOP:  cpu time      3.2357: real time      3.2410

 eigenvalue-minimisations  :     0
 total energy-change (2. order) :-0.1992359E-03  (-0.4181759E-04)
 number of electron      87.9999959 magnetization 
 augmentation part       56.6846661 magnetization 

 Free energy of the ion-electron system (eV)
  ---------------------------------------------------
  alpha Z        PSCENC =         5.85062430
  Ewald energy   TEWEN  =      9663.91341305
  -Hartree energ DENC   =    -19786.96166594
  -exchange      EXHF   =         0.00000000
  -V(xc)+E(xc)   XCENC  =       344.71020781
  PAW double counting   =     10347.98128327   -11198.69137081
  entropy T*S    EENTRO =        -0.00000000
  eigenvalues    EBANDS =      -543.41159757
  atomic energy  EATOM  =     11175.34100013
  ---------------------------------------------------
  free energy    TOTEN  =         8.73189424 eV

  energy without entropy =        8.73189424  energy(sigma->0) =        8.73189424


--------------------------------------------------------------------------------------------------------




--------------------------------------- Iteration      1(  18)  ---------------------------------------


    POTLOK:  cpu time      1.2233: real time      1.2234
    SETDIJ:  cpu time      0.1628: real time      0.1634
    TRIAL :  cpu time      0.2047: real time      0.2047
    CORREC:  cpu time      1.5476: real time      1.5477
    CHARGE:  cpu time      0.0899: real time      0.0899
    --------------------------------------------
      LOOP:  cpu time      3.2352: real time      3.2361

 eigenvalue-minimisations  :     0
 total energy-change (2. order) :-0.4170531E-04  (-0.2211160E-04)
 number of electron      87.9999959 magnetization 
 augmentation part       56.6853296 magnetization 

 Free energy of the ion-electron system (eV)
  ---------------------------------------------------
  alpha Z        PSCENC =         5.85062430
  Ewald energy   TEWEN  =      9663.91341305
  -Hartree energ DENC   =    -19786.50516304
  -exchange      EXHF   =         0.00000000
  -V(xc)+E(xc)   XCENC  =       344.69288661
  PAW double counting   =     10348.02901939   -11198.59825249
  entropy T*S    EENTRO =        -0.00000000
  eigenvalues    EBANDS =      -543.99167541
  atomic energy  EATOM  =     11175.34100013
  ---------------------------------------------------
  free energy    TOTEN  =         8.73185253 eV

  energy without entropy =        8.73185253  energy(sigma->0) =        8.73185253


--------------------------------------------------------------------------------------------------------




--------------------------------------- Iteration      1(  19)  ---------------------------------------


    POTLOK:  cpu time      1.2252: real time      1.2253
    SETDIJ:  cpu time      0.1616: real time      0.1616
    TRIAL :  cpu time      0.2047: real time      0.2047
    CORREC:  cpu time      1.5468: real time      1.5469
    CHARGE:  cpu time      0.0901: real time      0.0901
    --------------------------------------------
      LOOP:  cpu time      3.2310: real time      3.2360

 eigenvalue-minimisations  :     0
 total energy-change (2. order) :-0.2203693E-04  (-0.5146172E-05)
 number of electron      87.9999959 magnetization 
 augmentation part       56.6855111 magnetization 

 Free energy of the ion-electron system (eV)
  ---------------------------------------------------
  alpha Z        PSCENC =         5.85062430
  Ewald energy   TEWEN  =      9663.91341305
  -Hartree energ DENC   =    -19786.79222660
  -exchange      EXHF   =         0.00000000
  -V(xc)+E(xc)   XCENC  =       344.69779444
  PAW double counting   =     10348.53614159   -11199.13103158
  entropy T*S    EENTRO =        -0.00000000
  eigenvalues    EBANDS =      -543.68388482
  atomic energy  EATOM  =     11175.34100013
  ---------------------------------------------------
  free energy    TOTEN  =         8.73183049 eV

  energy without entropy =        8.73183049  energy(sigma->0) =        8.73183049


--------------------------------------------------------------------------------------------------------




--------------------------------------- Iteration      1(  20)  ---------------------------------------


    POTLOK:  cpu time      1.2219: real time      1.2219
    SETDIJ:  cpu time      0.1647: real time      0.1647
    TRIAL :  cpu time      0.2032: real time      0.2033
    CORREC:  cpu time      1.5577: real time      1.5578
    CHARGE:  cpu time      0.0893: real time      0.0893
    --------------------------------------------
      LOOP:  cpu time      3.2391: real time      3.2440

 eigenvalue-minimisations  :     0
 total energy-change (2. order) :-0.5167563E-05  (-0.4389236E-05)
 number of electron      87.9999959 magnetization 
 augmentation part       56.6850502 magnetization 

 Free energy of the ion-electron system (eV)
  ---------------------------------------------------
  alpha Z        PSCENC =         5.85062430
  Ewald energy   TEWEN  =      9663.91341305
  -Hartree energ DENC   =    -19786.81266238
  -exchange      EXHF   =         0.00000000
  -V(xc)+E(xc)   XCENC  =       344.69859976
  PAW double counting   =     10348.68269741   -11199.28590954
  entropy T*S    EENTRO =        -0.00000000
  eigenvalues    EBANDS =      -543.65593739
  atomic energy  EATOM  =     11175.34100013
  ---------------------------------------------------
  free energy    TOTEN  =         8.73182533 eV

  energy without entropy =        8.73182533  energy(sigma->0) =        8.73182533


--------------------------------------------------------------------------------------------------------




--------------------------------------- Iteration      1(  21)  ---------------------------------------


    POTLOK:  cpu time      1.2226: real time      1.2227
    SETDIJ:  cpu time      0.1656: real time      0.1656
    TRIAL :  cpu time      0.2053: real time      0.2053
    CORREC:  cpu time      1.5534: real time      1.5535
    CHARGE:  cpu time      0.0901: real time      0.0901
    --------------------------------------------
      LOOP:  cpu time      3.2412: real time      3.2444

 eigenvalue-minimisations  :     0
 total energy-change (2. order) :-0.4374859E-05  (-0.6515655E-06)
 number of electron      87.9999959 magnetization 
 augmentation part       56.6855364 magnetization 

 Free energy of the ion-electron system (eV)
  ---------------------------------------------------
  alpha Z        PSCENC =         5.85062430
  Ewald energy   TEWEN  =      9663.91341305
  -Hartree energ DENC   =    -19786.66732721
  -exchange      EXHF   =         0.00000000
  -V(xc)+E(xc)   XCENC  =       344.69511592
  PAW double counting   =     10348.76963907   -11199.35721057
  entropy T*S    EENTRO =        -0.00000000
  eigenvalues    EBANDS =      -543.81343373
  atomic energy  EATOM  =     11175.34100013
  ---------------------------------------------------
  free energy    TOTEN  =         8.73182095 eV

  energy without entropy =        8.73182095  energy(sigma->0) =        8.73182095


--------------------------------------------------------------------------------------------------------




--------------------------------------- Iteration      1(  22)  ---------------------------------------


    POTLOK:  cpu time      1.2229: real time      1.2229
    SETDIJ:  cpu time      0.1620: real time      0.1620
    TRIAL :  cpu time      0.2044: real time      0.2044
    CORREC:  cpu time      1.5486: real time      1.5487
    EDDIAG:  cpu time      0.0937: real time      0.0938
    CHARGE:  cpu time      0.0904: real time      0.0904
    --------------------------------------------
      LOOP:  cpu time      3.3285: real time      3.3290

 eigenvalue-minimisations  :     0
 total energy-change (2. order) :-0.6603022E-06  (-0.6602151E-06)
 number of electron      87.9999959 magnetization 
 augmentation part       56.6852317 magnetization 

 Free energy of the ion-electron system (eV)
  ---------------------------------------------------
  alpha Z        PSCENC =         5.85062430
  Ewald energy   TEWEN  =      9663.91341305
  -Hartree energ DENC   =    -19786.72509409
  -exchange      EXHF   =         0.00000000
  -V(xc)+E(xc)   XCENC  =       344.69756202
  PAW double counting   =     10348.85043920   -11199.45777873
  entropy T*S    EENTRO =        -0.00000000
  eigenvalues    EBANDS =      -543.73834557
  atomic energy  EATOM  =     11175.34100013
  ---------------------------------------------------
  free energy    TOTEN  =         8.73182029 eV

  energy without entropy =        8.73182029  energy(sigma->0) =        8.73182029


--------------------------------------------------------------------------------------------------------


  average scaling for gradient   1.2247


 average (electrostatic) potential at core
  the test charge radii are     0.9430
  (the norm of the test charge is              1.0000)
       1 -74.7143       2 -74.6660       3 -74.6656       4 -74.9379       5 -74.6658
       6 -74.7141       7 -74.5753       8 -74.6663



 E-fermi :  -4.2911     XC(G=0):  -0.5073     alpha+bet : -0.1585

 Fermi energy:        -4.2911197783

 k-point     1 :       0.0000    0.0000    0.0000
  band No.  band energies     occupation 
      1      -9.8267      2.00000
      2      -8.1005      2.00000
      3      -7.9598      2.00000
      4      -7.4755      2.00000
      5      -7.2576      2.00000
      6      -7.1853      2.00000
      7      -7.0227      2.00000
      8      -7.0157      2.00000
      9      -6.9675      2.00000
     10      -6.9491      2.00000
     11      -6.7761      2.00000
     12      -6.6419      2.00000
     13      -6.6371      2.00000
     14      -6.4907      2.00000
     15      -6.4766      2.00000
     16      -6.4219      2.00000
     17      -6.4078      2.00000
     18      -6.3334      2.00000
     19      -6.2798      2.00000
     20      -6.0604      2.00000
     21      -6.0599      2.00000
     22      -5.9483      2.00000
     23      -5.8615      2.00000
     24      -5.8423      2.00000
     25      -5.8348      2.00000
     26      -5.8246      2.00000
     27      -5.7469      2.00000
     28      -5.6896      2.00000
     29      -5.6857      2.00000
     30      -5.5755      2.00000
     31      -5.5159      2.00000
     32      -5.4819      2.00000
     33      -5.4697      2.00000
     34      -5.4696      2.00000
     35      -5.4121      2.00000
     36      -5.3070      2.00000
     37      -5.3023      2.00000
     38      -5.2527      2.00000
     39      -5.2442      2.00000
     40      -5.2378      2.00000
     41      -5.1855      2.00000
     42      -5.1795      2.00000
     43      -4.9284      2.00000
     44      -4.5425      2.00000
     45      -3.3452      0.00000
     46      -3.0023      0.00000
     47      -2.6445      0.00000
     48      -2.5340      0.00000
     49      -1.9649      0.00000
     50      -1.8936      0.00000
     51      -1.4028      0.00000
     52      -0.9468      0.00000
     53      -0.5087      0.00000
     54      -0.2686      0.00000
     55      -0.1394      0.00000
     56      -0.0751      0.00000
     57      -0.0373      0.00000
     58       0.1501      0.00000
     59       0.1778      0.00000
     60       0.2311      0.00000
     61       0.3017      0.00000
     62       0.3639      0.00000
     63       0.3966      0.00000
     64       0.4435      0.00000
     65       0.4526      0.00000
     66       0.4722      0.00000
     67       0.4982      0.00000
     68       0.5647      0.00000
     69       0.6010      0.00000
     70       0.6726      0.00000
     71       0.7127      0.00000
     72       0.7399      0.00000
     73       0.7840      0.00000
     74       0.8093      0.00000
     75       0.8403      0.00000
     76       0.9239      0.00000
     77       0.9293      0.00000
     78       1.0258      0.00000
     79       1.0415      0.00000
     80       1.0470      0.00000
     81       1.0604      0.00000
     82       1.0817      0.00000
     83       1.1514      0.00000
     84       1.1768      0.00000
     85       1.1854      0.00000
     86       1.2322      0.00000
     87       1.2475      0.00000
     88       1.3880      0.00000
     89       1.4574      0.00000
     90       1.5026      0.00000
     91       1.5427      0.00000
     92       1.5573      0.00000
     93       1.5846      0.00000
     94       1.6022      0.00000
     95       1.6217      0.00000
     96       1.6636      0.00000


--------------------------------------------------------------------------------------------------------


 soft charge-density along one line, spin component           1
         0         1         2         3         4         5         6         7         8         9
 total charge-density along one line

 pseudopotential strength for first ion, spin component:           1
-10.756   0.017  -0.005  -0.020   0.000   1.192  -0.012   0.004
  0.017 -10.788  -0.010   0.005   0.022  -0.012   1.216   0.008
 -0.005  -0.010 -10.775   0.007  -0.024   0.004   0.008   1.205
 -0.020   0.005   0.007 -10.750   0.018   0.015  -0.003  -0.006
  0.000   0.022  -0.024   0.018 -10.762  -0.000  -0.015   0.017
  1.192  -0.012   0.004   0.015  -0.000   6.170   0.008  -0.002
 -0.012   1.216   0.008  -0.003  -0.015   0.008   6.155  -0.005
  0.004   0.008   1.205  -0.006   0.017  -0.002  -0.005   6.163
  0.015  -0.003  -0.006   1.187  -0.013  -0.009   0.002   0.004
 -0.000  -0.015   0.017  -0.013   1.195  -0.000   0.009  -0.011
 -0.001   0.005   0.002  -0.003  -0.004  -0.001   0.002   0.001
 -0.002   0.008   0.003  -0.006  -0.007  -0.002   0.005   0.001
  0.005  -0.013   0.007  -0.000   0.012  -0.004   0.010  -0.005
 -0.000  -0.013  -0.015   0.005  -0.000  -0.000   0.009   0.011
 -0.013  -0.000  -0.003  -0.013   0.005   0.009  -0.000   0.002
  0.005  -0.013   0.008  -0.000   0.013  -0.003   0.008  -0.004
 -0.000  -0.013  -0.015   0.005   0.000  -0.001   0.008   0.008
 -0.013  -0.000  -0.003  -0.013   0.005   0.007  -0.001   0.001
 total augmentation occupancy for first ion, spin component:           1
  1.971   0.003  -0.000   0.001  -0.002  -0.021  -0.003   0.002   0.005  -0.001   0.007   0.002  -0.016  -0.005   0.027   0.009
  0.003   1.961   0.007  -0.001   0.010  -0.003  -0.014  -0.002  -0.002  -0.009  -0.021  -0.003   0.060   0.027  -0.003  -0.024
 -0.000   0.007   1.958  -0.004  -0.006   0.002  -0.002  -0.005   0.005   0.005  -0.001  -0.002  -0.040   0.062   0.023   0.012
  0.001  -0.001  -0.004   1.965   0.006   0.005  -0.002   0.005  -0.014  -0.007   0.005  -0.001  -0.002  -0.006   0.057  -0.000
 -0.002   0.010  -0.006   0.006   1.953  -0.001  -0.009   0.006  -0.007  -0.005   0.013  -0.003  -0.069   0.007  -0.039   0.021
 -0.021  -0.003   0.002   0.005  -0.001   0.005  -0.001   0.001   0.003  -0.000  -0.016   0.002  -0.006  -0.002   0.012   0.000
 -0.003  -0.014  -0.002  -0.002  -0.009  -0.001   0.007   0.002  -0.001  -0.002   0.041  -0.005   0.015   0.015  -0.002  -0.001
  0.002  -0.002  -0.005   0.005   0.006   0.001   0.002   0.008   0.000   0.001   0.015  -0.003  -0.004   0.018   0.005   0.000
  0.005  -0.002   0.005  -0.014  -0.007   0.003  -0.001   0.000   0.006  -0.001  -0.018   0.003  -0.003  -0.006   0.016   0.000
 -0.001  -0.009   0.005  -0.007  -0.005  -0.000  -0.002   0.001  -0.001   0.005  -0.015   0.001  -0.010  -0.002  -0.006   0.001
  0.007  -0.021  -0.001   0.005   0.013  -0.016   0.041   0.015  -0.018  -0.015   1.630  -0.076   0.173   0.219  -0.086  -0.017
  0.002  -0.003  -0.002  -0.001  -0.003   0.002  -0.005  -0.003   0.003   0.001  -0.076   0.007  -0.013  -0.020   0.008   0.001
 -0.016   0.060  -0.040  -0.002  -0.069  -0.006   0.015  -0.004  -0.003  -0.010   0.173  -0.013   0.060   0.023  -0.011  -0.006
 -0.005   0.027   0.062  -0.006   0.007  -0.002   0.015   0.018  -0.006  -0.002   0.219  -0.020   0.023   0.083  -0.008  -0.003
  0.027  -0.003   0.023   0.057  -0.039   0.012  -0.002   0.005   0.016  -0.006  -0.086   0.008  -0.011  -0.008   0.063   0.001
  0.009  -0.024   0.012  -0.000   0.021   0.000  -0.001   0.000   0.000   0.001  -0.017   0.001  -0.006  -0.003   0.001   0.001
 -0.000  -0.021  -0.029   0.009  -0.000   0.000  -0.001  -0.001   0.000   0.000  -0.023   0.002  -0.003  -0.007   0.001   0.000
 -0.022  -0.000  -0.006  -0.025   0.010  -0.000   0.000  -0.000  -0.001   0.000   0.009  -0.001   0.001   0.001  -0.004  -0.000


------------------------ aborting loop because EDIFF is reached ----------------------------------------


    FORLOC:  cpu time      0.0033: real time      0.0033
    FORNL :  cpu time      0.1052: real time      0.1053
    STRESS:  cpu time      0.3193: real time      0.3195
    FORCOR:  cpu time      1.1688: real time      1.1688
    OFIELD:  cpu time      0.0002: real time      0.0002

  FORCE on cell =-STRESS in cart. coord.  units (eV):
  Direction    XX          YY          ZZ          XY          YZ          ZX
  --------------------------------------------------------------------------------------
  Alpha Z     5.85062     5.85062     5.85062
  Ewald    2099.51805  4575.09397  2989.29745   -28.18565   652.24514  -430.33043
  Hartree  5654.44207  7738.66444  6393.57787   -26.14465   548.30315  -352.12517
  E(xc)    -525.28977  -524.38333  -524.94624    -0.00665     0.24732    -0.17943
  Local   -8527.14250-13069.31136-10148.47782    54.47616 -1196.23817   778.31006
  n-local  -191.73973  -192.60155  -192.12304    -0.01894    -0.20088     0.22267
  augment   760.03382   752.16393   756.63659    -0.06894    -1.91788     1.86201
  Kinetic   726.97362   718.18976   723.24413    -0.06320    -2.17144     2.03768
  Fock        0.00000     0.00000     0.00000     0.00000     0.00000     0.00000
  -------------------------------------------------------------------------------------
  Total       2.64619     3.66649     3.05957    -0.01187     0.26724    -0.20262
  in kB       0.52996     0.73430     0.61275    -0.00238     0.05352    -0.04058
  external pressure =        0.63 kB  Pullay stress =        0.00 kB


 VOLUME and BASIS-vectors are now :
 -----------------------------------------------------------------------------
  energy-cutoff  :      520.00
  volume of cell :     8000.00
      direct lattice vectors                 reciprocal lattice vectors
    20.000000000  0.000000000  0.000000000     0.050000000  0.000000000  0.000000000
     0.000000000 20.000000000  0.000000000     0.000000000  0.050000000  0.000000000
     0.000000000  0.000000000 20.000000000     0.000000000  0.000000000  0.050000000

  length of vectors
    20.000000000 20.000000000 20.000000000     0.050000000  0.050000000  0.050000000


 FORCES acting on ions:
    Electron-Ion                     Ewald-Force                    Non-Local-Force
 -----------------------------------------------------------------------------------------------
   -.325E+03 0.643E+03 0.821E+03   0.322E+03 -.636E+03 -.813E+03   0.314E+01 -.682E+01 -.809E+01
   -.628E+03 -.414E+03 -.820E+03   0.627E+03 0.411E+03 0.816E+03   0.173E+01 0.359E+01 0.427E+01
   0.848E+03 0.593E+03 0.408E+03   -.846E+03 -.589E+03 -.406E+03   -.302E+01 -.465E+01 -.186E+01
   -.429E+03 -.350E+03 0.803E+03   0.428E+03 0.350E+03 -.802E+03   0.882E+00 0.719E+00 -.165E+01
   0.940E+03 -.593E+03 -.602E+02   -.937E+03 0.589E+03 0.586E+02   -.371E+01 0.422E+01 0.164E+01
   -.193E+03 -.106E+04 0.147E+03   0.191E+03 0.105E+04 -.146E+03   0.178E+01 0.108E+02 -.112E+01
   0.507E+03 0.413E+03 -.948E+03   -.503E+03 -.410E+03 0.942E+03   -.371E+01 -.303E+01 0.695E+01
   -.720E+03 0.771E+03 -.352E+03   0.718E+03 -.767E+03 0.351E+03   0.241E+01 -.526E+01 0.776E+00
 -----------------------------------------------------------------------------------------------
   0.499E+00 0.399E+00 -.928E+00   0.227E-12 -.227E-12 0.000E+00   -.505E+00 -.399E+00 0.925E+00


 POSITION                                       TOTAL-FORCE (eV/Angst)
 -----------------------------------------------------------------------------------
     10.90446      7.82921      8.19612         0.175053     -0.331083     -0.446862
     11.06347     10.37385     11.41415         0.364903      0.196805      0.473110
      8.94284      8.42813      9.43454        -0.496594     -0.304945     -0.216327
     10.74078     10.00332      9.04266         0.256919      0.210102     -0.481874
      8.77299     10.63439     10.30470        -0.549104      0.304197      0.023414
     10.56971     12.16960      9.90837         0.104879      0.562909     -0.093837
      9.27665      8.80849     11.78412        -0.269654     -0.222478      0.511763
     11.23371      8.16841     10.54378         0.413598     -0.415506      0.230613
 -----------------------------------------------------------------------------------
    total drift:                               -0.005408      0.000521     -0.003040


--------------------------------------------------------------------------------------------------------



  FREE ENERGIE OF THE ION-ELECTRON SYSTEM (eV)
  ---------------------------------------------------
  free  energy   TOTEN  =         8.73182029 eV

  energy  without entropy=        8.73182029  energy(sigma->0) =        8.73182029



--------------------------------------------------------------------------------------------------------


    POTLOK:  cpu time      1.4278: real time      1.4280


--------------------------------------------------------------------------------------------------------


     LOOP+:  cpu time     65.7225: real time     65.7975
    4ORBIT:  cpu time      0.0000: real time      0.0000

 total amount of memory used by VASP MPI-rank0   102622. kBytes
=======================================================================

   base      :      30000. kBytes
   nonlr-proj:       3015. kBytes
   fftplans  :      28354. kBytes
   grid      :      38630. kBytes
   one-center:         31. kBytes
   wavefun   :       2592. kBytes

  
  
 General timing and accounting informations for this job:
 ========================================================
  
                  Total CPU time used (sec):       86.222
                            User time (sec):       84.825
                          System time (sec):        1.396
                         Elapsed time (sec):       88.494
  
                   Maximum memory used (kb):      333160.
                   Average memory used (kb):          N/A
  
                          Minor page faults:        26872
                          Major page faults:            0
                 Voluntary context switches:         9971
