 vasp.6.3.0 20Jan22 (build Apr  1 2022 16:44:48) complex                         
 executed on        HPECrayEX_GCC date 2023.01.06  19:22:24
 running  768 mpi-ranks, with    1 threads/rank
 distrk:  each k-point on  384 cores,    2 groups
 distr:  one band on NCORE=   4 cores,   96 groups


--------------------------------------------------------------------------------------------------------


 INCAR:
   SYSTEM = MgO-rocksalt
   ISMEAR = 0
   SIGMA = 0.05
   EDIFF = 1E-6
   ALGO = ALL
   ISTART = 0
   IBRION = -1
   NSW = 0
   ISYM = 2
   METAGGA = M06L
   ENCUT = 520
   PREC = Accurate
   LASPH = .TRUE.
   LREAL = Auto
   ISPIN = 1
   NELM = 200
   NELMIN = 8
   NCORE = 4
   KPAR = 2
   LWAVE = .FALSE.
   LCHARG = .FALSE.

 POTCAR:    PAW_PBE Au 04Oct2007                  
 POTCAR:    PAW_PBE Au 04Oct2007                  
   SHA256 =  d0044ae04e2bdce24051b198fc5c053d722a5bc6fe3c3b100514a13fc5d2db88 Au/POTCAR             
   COPYR  = (c) Copyright 04Oct2007 Georg Kresse                                                    
   COPYR  = This file is part of the software VASP. Any use, copying, and all other rights are regul
   COPYR  = If you do not have a valid VASP license, you may not use, copy or distribute this file. 
   VRHFIN =Au: s1d10                                                                                
   LEXCH  = PE                                                                                      
   EATOM  =   926.0867 eV,   68.0654 Ry                                                             
                                                                                                    
   TITEL  = PAW_PBE Au 04Oct2007                                                                    
   LULTRA =        F    use ultrasoft PP ?                                                          
   IUNSCR =        1    unscreen: 0-lin 1-nonlin 2-no                                               
   RPACOR =    2.330    partial core radius                                                         
   POMASS =  196.966; ZVAL   =   11.000    mass and valenz                                          
   RCORE  =    2.500    outmost cutoff radius                                                       
   RWIGS  =    2.840; RWIGS  =    1.503    wigner-seitz radius (au A)                               
   ENMAX  =  229.943; ENMIN  =  172.457 eV                                                          
   ICORE  =        3    local potential                                                             
   LCOR   =        T    correct aug charges                                                         
   LPAW   =        T    paw PP                                                                      
   EAUG   =  356.670                                                                                
   DEXC   =    0.000                                                                                
   RMAX   =    2.562    core radius for proj-oper                                                   
   RAUG   =    1.300    factor for augmentation sphere                                              
   RDEP   =    2.598    radius for radial grids                                                     
   RDEPT  =    2.193    core radius for aug-charge                                                  
                                                                                                    
   Atomic configuration                                                                             
   16 entries                                                                                       
     n  l   j            E        occ.                                                              
     1  0  0.50    -80748.5001   2.0000                                                             
     2  0  0.50    -14244.7466   2.0000                                                             
     2  1  1.50    -12310.9591   6.0000                                                             
     3  0  0.50     -3362.1768   2.0000                                                             
     3  1  1.50     -2801.5463   6.0000                                                             
     3  2  2.50     -2203.8206  10.0000                                                             
     4  0  0.50      -729.8168   2.0000                                                             
     4  1  1.50      -546.0527   6.0000                                                             
     4  2  2.50      -325.7302  10.0000                                                             
     4  3  3.50       -81.1472  14.0000                                                             
     5  0  0.50      -108.3201   2.0000                                                             
     5  1  1.50       -59.7479   6.0000                                                             
     5  2  2.50        -6.8783  10.0000                                                             
     6  0  0.50        -5.7602   1.0000                                                             
     6  1  1.50        -6.8029   0.0000                                                             
     5  3  2.50        -1.3606   0.0000                                                             
   Description                                                                                      
     l       E           TYP  RCUT    TYP  RCUT                                                     
     2     -6.8782861     23  2.500                                                                 
     2     -8.2388687     23  2.500                                                                 
     0     -5.7601759     23  2.500                                                                 
     0     -0.8493231     23  2.500                                                                 
     1     -2.7211652     23  2.500                                                                 
     1     27.2116520     23  2.500                                                                 
     3     -1.3605826     23  2.500                                                                 
  local pseudopotential read in
  partial core-charges read in
  partial kinetic energy density read in
  atomic valenz-charges read in
  non local Contribution for L=           2  read in
    real space projection operators read in
  non local Contribution for L=           2  read in
    real space projection operators read in
  non local Contribution for L=           0  read in
    real space projection operators read in
  non local Contribution for L=           0  read in
    real space projection operators read in
  non local Contribution for L=           1  read in
    real space projection operators read in
  non local Contribution for L=           1  read in
    real space projection operators read in
    PAW grid and wavefunctions read in

   number of l-projection  operators is LMAX  =           6
   number of lm-projection operators is LMMAX =          18

 -----------------------------------------------------------------------------
|                                                                             |
|               ----> ADVICE to this user running VASP <----                  |
|                                                                             |
|     You have a (more or less) 'small supercell' and for smaller cells       |
|     it is recommended to use the reciprocal-space projection scheme!        |
|     The real-space optimization is not efficient for small cells and it     |
|     is also less accurate ...                                               |
|     Therefore, set LREAL=.FALSE. in the INCAR file.                         |
|                                                                             |
 -----------------------------------------------------------------------------

 Optimization of the real space projectors (new method)

 maximal supplied QI-value         = 15.12
 optimisation between [QCUT,QGAM] = [ 11.64, 23.28] = [ 37.95,151.78] Ry 
 Optimized for a Real-space Cutoff    1.49 Angstroem

   l    n(q)    QCUT    max X(q) W(low)/X(q) W(high)/X(q)  e(spline) 
   2      9    11.641    60.898    0.24E-03    0.10E-03    0.19E-06
   2      9    11.641    58.894    0.25E-03    0.10E-03    0.19E-06
   0     10    11.641   109.617    0.73E-04    0.33E-04    0.11E-06
   0     10    11.641    75.026    0.71E-04    0.32E-04    0.11E-06
   1     10    11.641    16.344    0.27E-04    0.97E-04    0.16E-06
   1     10    11.641    10.160    0.23E-04    0.77E-04    0.13E-06
  PAW_PBE Au 04Oct2007                  :
 energy of atom  1       EATOM= -926.0867
 kinetic energy error for atom=    0.0034 (will be added to EATOM!!)


 POSCAR: Au
  positions in direct lattice
  velocities in cartesian coordinates

 METAGGA = M06L     LMAXTAU =  6    LMIXTAU =  F

 exchange correlation table for  LEXCH =        8
   RHO(1)=    0.500       N(1)  =     2000
   RHO(2)=  100.500       N(2)  =     4000



--------------------------------------------------------------------------------------------------------


 ion  position               nearest neighbor table
   1  0.520  0.407  0.503-   5 2.75   3 2.75   7 2.75   2 2.75
   2  0.414  0.477  0.451-   3 2.68   8 2.72   1 2.75   6 2.84   7 3.06
   3  0.439  0.485  0.583-   2 2.68   4 2.72   1 2.75   6 2.84   5 3.06
   4  0.504  0.595  0.629-   6 2.65   5 2.72   3 2.72
   5  0.586  0.517  0.553-   7 2.69   4 2.72   1 2.75   6 2.84   3 3.06
   6  0.478  0.594  0.500-   4 2.65   8 2.65   7 2.84   2 2.84   3 2.84   5 2.84
   7  0.560  0.509  0.421-   5 2.69   8 2.72   1 2.75   6 2.84   2 3.06
   8  0.455  0.579  0.370-   6 2.65   7 2.72   2 2.72

  LATTYP: Found a simple cubic cell.
 ALAT       =    20.0000000000
  
  Lattice vectors:
  
 A1 = (  20.0000000000,   0.0000000000,   0.0000000000)
 A2 = (   0.0000000000,  20.0000000000,   0.0000000000)
 A3 = (   0.0000000000,   0.0000000000,  20.0000000000)


Analysis of symmetry for initial positions (statically):
=====================================================================
 Subroutine PRICEL returns:
 Original cell was already a primitive cell.
 

 Routine SETGRP: Setting up the symmetry group for a 
 simple cubic supercell.


 Subroutine GETGRP returns: Found  1 space group operations
 (whereof  1 operations were pure point group operations)
 out of a pool of 48 trial point group operations.


The static configuration has the point symmetry C_1 .


Analysis of symmetry for dynamics (positions and initial velocities):
=====================================================================
 Subroutine PRICEL returns:
 Original cell was already a primitive cell.
 

 Routine SETGRP: Setting up the symmetry group for a 
 simple cubic supercell.


 Subroutine GETGRP returns: Found  1 space group operations
 (whereof  1 operations were pure point group operations)
 out of a pool of 48 trial point group operations.


The dynamic configuration has the point symmetry C_1 .


 Subroutine INISYM returns: Found  1 space group operations
 (whereof  1 operations are pure point group operations),
 and found     1 'primitive' translations


----------------------------------------------------------------------------------------

                                     Primitive cell                                     

  volume of cell :    8000.0000

  direct lattice vectors                    reciprocal lattice vectors
    20.000000000  0.000000000  0.000000000     0.050000000  0.000000000  0.000000000
     0.000000000 20.000000000  0.000000000     0.000000000  0.050000000  0.000000000
     0.000000000  0.000000000 20.000000000     0.000000000  0.000000000  0.050000000

  length of vectors
    20.000000000 20.000000000 20.000000000     0.050000000  0.050000000  0.050000000

  position of ions in fractional coordinates (direct lattice)
     0.519773028  0.407131037  0.503490243
     0.413738758  0.477044619  0.450938876
     0.438934999  0.485178296  0.582550389
     0.504412567  0.594826287  0.629496384
     0.585532661  0.517331468  0.552543605
     0.478077796  0.593585837  0.499866133
     0.560283540  0.509211146  0.420924117
     0.454820405  0.578838963  0.370464440

  ion indices of the primitive-cell ions
   primitive index   ion index
                 1           1
                 2           2
                 3           3
                 4           4
                 5           5
                 6           6
                 7           7
                 8           8

----------------------------------------------------------------------------------------



 KPOINTS: KPOINTS created by Atomic Simulation Env

Automatic generation of k-mesh.
 Grid dimensions read from file:
 generate k-points for:    1    1    1

 Generating k-lattice:

  Cartesian coordinates                     Fractional coordinates (reciprocal lattice)
     0.050000000  0.000000000  0.000000000     1.000000000  0.000000000  0.000000000
     0.000000000  0.050000000  0.000000000     0.000000000  1.000000000  0.000000000
     0.000000000  0.000000000  0.050000000     0.000000000  0.000000000  1.000000000

  Length of vectors
     0.050000000  0.050000000  0.050000000

  Shift w.r.t. Gamma in fractional coordinates (k-lattice)
     0.000000000  0.000000000  0.000000000

 
 Subroutine IBZKPT returns following result:
 ===========================================
 
 Found      1 irreducible k-points:
 
 Following reciprocal coordinates:
            Coordinates               Weight
  0.000000  0.000000  0.000000      1.000000
 
 Following cartesian coordinates:
            Coordinates               Weight
  0.000000  0.000000  0.000000      1.000000
 


--------------------------------------------------------------------------------------------------------




 Dimension of arrays:
   k-points           NKPTS =      1   k-points in BZ     NKDIM =      1   number of bands    NBANDS=     96
   number of dos      NEDOS =    301   number of ions     NIONS =      8
   non local maximal  LDIM  =      6   non local SUM 2l+1 LMDIM =     18
   total plane-waves  NPLWV = ******
   max r-space proj   IRMAX =   5885   max aug-charges    IRDMAX=  25995
   dimension x,y,z NGX =   150 NGY =  150 NGZ =  150
   dimension x,y,z NGXF=   300 NGYF=  300 NGZF=  300
   support grid    NGXF=   300 NGYF=  300 NGZF=  300
   ions per type =               8
   NGX,Y,Z   is equivalent  to a cutoff of  12.47, 12.47, 12.47 a.u.
   NGXF,Y,Z  is equivalent  to a cutoff of  24.94, 24.94, 24.94 a.u.

 SYSTEM =  MgO-rocksalt                            
 POSCAR =  Au                                      

 Startparameter for this run:
   NWRITE =      2    write-flag & timer
   PREC   = accura    normal or accurate (medium, high low for compatibility)
   ISTART =      0    job   : 0-new  1-cont  2-samecut
   ICHARG =      2    charge: 1-file 2-atom 10-const
   ISPIN  =      1    spin polarized calculation?
   LNONCOLLINEAR =      F non collinear calculations
   LSORBIT =      F    spin-orbit coupling
   INIWAV =      1    electr: 0-lowe 1-rand  2-diag
   LASPH  =      T    aspherical Exc in radial PAW
 Electronic Relaxation 1
   ENCUT  =  520.0 eV  38.22 Ry    6.18 a.u.  37.19 37.19 37.19*2*pi/ulx,y,z
   ENINI  =  520.0     initial cutoff
   ENAUG  =  356.7 eV  augmentation charge cutoff
   NELM   =    200;   NELMIN=  8; NELMDL= -5     # of ELM steps 
   EDIFF  = 0.1E-05   stopping-criterion for ELM
   LREAL  =      T    real-space projection
   NLSPLINE    = F    spline interpolate recip. space projectors
   LCOMPAT=      F    compatible to vasp.4.4
   GGA_COMPAT  = T    GGA compatible to vasp.4.4-vasp.4.6
   LMAXPAW     = -100 max onsite density
   LMAXMIX     =    2 max onsite mixed and CHGCAR
   VOSKOWN=      0    Vosko Wilk Nusair interpolation
   ROPT   =   -0.00025
 Ionic relaxation
   EDIFFG = 0.1E-04   stopping-criterion for IOM
   NSW    =      0    number of steps for IOM
   NBLOCK =      1;   KBLOCK =      1    inner block; outer block 
   IBRION =     -1    ionic relax: 0-MD 1-quasi-New 2-CG
   NFREE  =      0    steps in history (QN), initial steepest desc. (CG)
   ISIF   =      2    stress and relaxation
   IWAVPR =     10    prediction:  0-non 1-charg 2-wave 3-comb
   ISYM   =      2    0-nonsym 1-usesym 2-fastsym
   LCORR  =      T    Harris-Foulkes like correction to forces

   POTIM  = 0.5000    time-step for ionic-motion
   TEIN   =    0.0    initial temperature
   TEBEG  =    0.0;   TEEND  =   0.0 temperature during run
   SMASS  =  -3.00    Nose mass-parameter (am)
   estimated Nose-frequenzy (Omega)   =  0.10E-29 period in steps = 0.13E+47 mass=  -0.914E-26a.u.
   SCALEE = 1.0000    scale energy and forces
   NPACO  =    256;   APACO  = 10.0  distance and # of slots for P.C.
   PSTRESS=    0.0 pullay stress

  Mass of Ions in am
   POMASS = 196.97
  Ionic Valenz
   ZVAL   =  11.00
  Atomic Wigner-Seitz radii
   RWIGS  =  -1.00
  virtual crystal weights 
   VCA    =   1.00
   NELECT =      88.0000    total number of electrons
   NUPDOWN=      -1.0000    fix difference up-down

 DOS related values:
   EMIN   =  10.00;   EMAX   =-10.00  energy-range for DOS
   EFERMI =   0.00
   ISMEAR =     0;   SIGMA  =   0.05  broadening in eV -4-tet -1-fermi 0-gaus

 Electronic relaxation 2 (details)
   IALGO  =     58    algorithm
   LDIAG  =      T    sub-space diagonalisation (order eigenvalues)
   LSUBROT=      F    optimize rotation matrix (better conditioning)
   TURBO    =      0    0=normal 1=particle mesh
   IRESTART =      0    0=no restart 2=restart with 2 vectors
   NREBOOT  =      0    no. of reboots
   NMIN     =      0    reboot dimension
   EREF     =   0.00    reference energy to select bands
   IMIX   =      4    mixing-type and parameters
     AMIX     =   0.40;   BMIX     =  1.00
     AMIX_MAG =   1.60;   BMIX_MAG =  1.00
     AMIN     =   0.10
     WC   =   100.;   INIMIX=   1;  MIXPRE=   1;  MAXMIX= -45

 Intra band minimization:
   WEIMIN = 0.0000     energy-eigenvalue tresh-hold
   EBREAK =  0.26E-08  absolut break condition
   DEPER  =   0.30     relativ break condition  

   TIME   =   0.40     timestep for ELM

  volume/ion in A,a.u.               =    1000.00      6748.33
  Fermi-wavevector in a.u.,A,eV,Ry     =   0.364087  0.688026  1.803584  0.132560
  Thomas-Fermi vector in A             =   1.286639

 Write flags
   LWAVE        =      F    write WAVECAR
   LDOWNSAMPLE  =      F    k-point downsampling of WAVECAR
   LCHARG       =      F    write CHGCAR
   LVTOT        =      F    write LOCPOT, total local potential
   LVHAR        =      F    write LOCPOT, Hartree potential only
   LELF         =      F    write electronic localiz. function (ELF)
   LORBIT       =      0    0 simple, 1 ext, 2 COOP (PROOUT), +10 PAW based schemes


 Dipole corrections
   LMONO  =      F    monopole corrections only (constant potential shift)
   LDIPOL =      F    correct potential (dipole corrections)
   IDIPOL =      0    1-x, 2-y, 3-z, 4-all directions 
   EPSILON=  1.0000000 bulk dielectric constant

 Exchange correlation treatment:
   GGA     =    --    GGA type
   LEXCH   =     8    internal setting for exchange type
   LIBXC   =     F    Libxc                    
   VOSKOWN =     0    Vosko Wilk Nusair interpolation
   LHFCALC =     F    Hartree Fock is set to
   LHFONE  =     F    Hartree Fock one center treatment
   AEXX    =    0.0000 exact exchange contribution

 Linear response parameters
   LEPSILON=     F    determine dielectric tensor
   LRPA    =     F    only Hartree local field effects (RPA)
   LNABLA  =     F    use nabla operator in PAW spheres
   LVEL    =     F    velocity operator in full k-point grid
   CSHIFT  =0.1000    complex shift for real part using Kramers Kronig
   OMEGAMAX=  -1.0    maximum frequency
   DEG_THRESHOLD= 0.2000000E-02 threshold for treating states as degnerate
   RTIME   =   -0.100 relaxation time in fs
  (WPLASMAI=    0.000 imaginary part of plasma frequency in eV, 0.658/RTIME)
   DFIELD  = 0.0000000 0.0000000 0.0000000 field for delta impulse in time

  Optional k-point grid parameters
   LKPOINTS_OPT  =     F    use optional k-point grid
   KPOINTS_OPT_MODE=     1    mode for optional k-point grid

 Orbital magnetization related:
   ORBITALMAG=     F  switch on orbital magnetization
   LCHIMAG   =     F  perturbation theory with respect to B field
   DQ        =  0.001000  dq finite difference perturbation B field
   LLRAUG    =     F  two centre corrections for induced B field



--------------------------------------------------------------------------------------------------------


 Static calculation
 charge density and potential will be updated during run
 non-spin polarized calculation
 Conjugate gradient for all bands (Freysoldt, et al. PRB 79, 241103 (2009))
 preconditioned conjugated gradient                                        
 perform sub-space diagonalisation
    before iterative eigenvector-optimisation
 modified Broyden-mixing scheme, WC =      100.0
 initial mixing is a Kerker type mixing with AMIX =  0.4000 and BMIX =      1.0000
 Hartree-type preconditioning will be used
 using additional bands           52
 real space projection scheme for non local part
 use partial core corrections
 no Harris-corrections to forces 
 use gradient corrections 
 use of overlap-Matrix (Vanderbilt PP)
 Gauss-broadening in eV      SIGMA  =   0.05


--------------------------------------------------------------------------------------------------------


  energy-cutoff  :      520.00
  volume of cell :     8000.00
      direct lattice vectors                 reciprocal lattice vectors
    20.000000000  0.000000000  0.000000000     0.050000000  0.000000000  0.000000000
     0.000000000 20.000000000  0.000000000     0.000000000  0.050000000  0.000000000
     0.000000000  0.000000000 20.000000000     0.000000000  0.000000000  0.050000000

  length of vectors
    20.000000000 20.000000000 20.000000000     0.050000000  0.050000000  0.050000000



 k-points in units of 2pi/SCALE and weight: KPOINTS created by Atomic Simulation Env
   0.00000000  0.00000000  0.00000000       1.000

 k-points in reciprocal lattice and weights: KPOINTS created by Atomic Simulation Env
   0.00000000  0.00000000  0.00000000       1.000

 position of ions in fractional coordinates (direct lattice) 
   0.51977303  0.40713104  0.50349024
   0.41373876  0.47704462  0.45093888
   0.43893500  0.48517830  0.58255039
   0.50441257  0.59482629  0.62949638
   0.58553266  0.51733147  0.55254360
   0.47807780  0.59358584  0.49986613
   0.56028354  0.50921115  0.42092412
   0.45482040  0.57883896  0.37046444

 position of ions in cartesian coordinates  (Angst):
  10.39546056  8.14262075 10.06980486
   8.27477517  9.54089237  9.01877751
   8.77869998  9.70356593 11.65100779
  10.08825134 11.89652574 12.58992768
  11.71065321 10.34662936 11.05087209
   9.56155593 11.87171675  9.99732265
  11.20567080 10.18422292  8.41848234
   9.09640810 11.57677926  7.40928880



--------------------------------------------------------------------------------------------------------


 k-point   1 :   0.0000 0.0000 0.0000  plane waves:  215503

 maximum and minimum number of plane-waves per node :     53900    53857

 maximum number of plane-waves:    215503
 maximum index in each direction: 
   IXMAX=   37   IYMAX=   37   IZMAX=   37
   IXMIN=  -37   IYMIN=  -37   IZMIN=  -37


 real space projection operators:
  total allocation   :       6365.53 KBytes
  max/ min on nodes  :       1600.03       1584.00


 parallel 3D FFT for wavefunctions:
    minimum data exchange during FFTs selected (reduces bandwidth)
 parallel 3D FFT for charge:
    minimum data exchange during FFTs selected (reduces bandwidth)


 total amount of memory used by VASP MPI-rank0   130450. kBytes
=======================================================================

   base      :      30000. kBytes
   nonlr-proj:       2759. kBytes
   fftplans  :      28354. kBytes
   grid      :      66714. kBytes
   one-center:         31. kBytes
   wavefun   :       2592. kBytes

     INWAV:  cpu time      0.0001: real time      0.0000
 Broyden mixing: mesh for mixing (old mesh)
   NGX = 75   NGY = 75   NGZ = 75
  (NGX  =300   NGY  =300   NGZ  =300)
  gives a total of 421875 points

 initial charge density was supplied:
 charge density of overlapping atoms calculated
 number of electron      88.0000000 magnetization 
 keeping initial charge density in first step


--------------------------------------------------------------------------------------------------------


 Maximum index for non-local projection operator         1428
 Maximum index for augmentation-charges            0 (set IRDMAX)


--------------------------------------------------------------------------------------------------------


 First call to EWALD:  gamma=   0.089
 Maximum number of real-space cells 3x 3x 3
 Maximum number of reciprocal cells 3x 3x 3

    FEWALD:  cpu time      0.0015: real time      0.0015


--------------------------------------- Iteration      1(   1)  ---------------------------------------


    POTLOK:  cpu time      0.2695: real time      0.2697
    SETDIJ:  cpu time      0.8871: real time      0.8876
    TRIAL :  cpu time      2.7450: real time      2.7458
    CORREC:  cpu time      0.0003: real time      0.0003
    --------------------------------------------
      LOOP:  cpu time      3.9032: real time      3.9046

 eigenvalue-minimisations  :   384
 total energy-change (2. order) :-0.2323013E+11  (-0.1811809E+11)
 number of electron      88.0000000 magnetization 
 augmentation part       88.0000000 magnetization 

 Free energy of the ion-electron system (eV)
  ---------------------------------------------------
  alpha Z        PSCENC =         9.31836840
  Ewald energy   TEWEN  =      7464.19428679
  -Hartree energ DENC   =    -14561.40702432
  -exchange      EXHF   =         0.00000000
  -V(xc)+E(xc)   XCENC  =     -2013.75456466
  PAW double counting   =      6892.66296676    -7095.29799587
  entropy T*S    EENTRO =         0.00000000
  eigenvalues    EBANDS = ******************
  atomic energy  EATOM  =      7408.66657912
  ---------------------------------------------------
  free energy    TOTEN  = ****************** eV

  energy without entropy =******************  energy(sigma->0) =******************


--------------------------------------------------------------------------------------------------------




--------------------------------------- Iteration      1(   2)  ---------------------------------------


    TRIAL :  cpu time      1.2436: real time      1.2480
    CORREC:  cpu time      0.0003: real time      0.0003
    --------------------------------------------
      LOOP:  cpu time      1.2497: real time      1.2555

 eigenvalue-minimisations  :   192
 total energy-change (2. order) :-0.9797496E+10  (-0.9797496E+10)
 number of electron      88.0000000 magnetization 
 augmentation part       88.0000000 magnetization 

 Free energy of the ion-electron system (eV)
  ---------------------------------------------------
  alpha Z        PSCENC =         9.31836840
  Ewald energy   TEWEN  =      7464.19428679
  -Hartree energ DENC   =    -14561.40702432
  -exchange      EXHF   =         0.00000000
  -V(xc)+E(xc)   XCENC  =     -2013.75456466
  PAW double counting   =      6892.66296676    -7095.29799587
  entropy T*S    EENTRO =         0.00000000
  eigenvalues    EBANDS = ******************
  atomic energy  EATOM  =      7408.66657912
  ---------------------------------------------------
  free energy    TOTEN  = ****************** eV

  energy without entropy =******************  energy(sigma->0) =******************


--------------------------------------------------------------------------------------------------------




--------------------------------------- Iteration      1(   3)  ---------------------------------------


    TRIAL :  cpu time      2.7782: real time      2.7794
    CORREC:  cpu time      0.0003: real time      0.0003
    --------------------------------------------
      LOOP:  cpu time      2.7857: real time      2.7872

 eigenvalue-minimisations  :   384
 total energy-change (2. order) :-0.4835543E+09  (-0.4835543E+09)
 number of electron      88.0000000 magnetization 
 augmentation part       88.0000000 magnetization 

 Free energy of the ion-electron system (eV)
  ---------------------------------------------------
  alpha Z        PSCENC =         9.31836840
  Ewald energy   TEWEN  =      7464.19428679
  -Hartree energ DENC   =    -14561.40702432
  -exchange      EXHF   =         0.00000000
  -V(xc)+E(xc)   XCENC  =     -2013.75456466
  PAW double counting   =      6892.66296676    -7095.29799587
  entropy T*S    EENTRO =         0.00000000
  eigenvalues    EBANDS = ******************
  atomic energy  EATOM  =      7408.66657912
  ---------------------------------------------------
  free energy    TOTEN  = ****************** eV

  energy without entropy =******************  energy(sigma->0) =******************


--------------------------------------------------------------------------------------------------------




--------------------------------------- Iteration      1(   4)  ---------------------------------------


    TRIAL :  cpu time      1.8929: real time      1.8930
    CORREC:  cpu time      0.0002: real time      0.0002
    --------------------------------------------
      LOOP:  cpu time      1.9001: real time      1.9004

 eigenvalue-minimisations  :   288
 total energy-change (2. order) :-0.7218671E+06  (-0.7218671E+06)
 number of electron      88.0000000 magnetization 
 augmentation part       88.0000000 magnetization 

 Free energy of the ion-electron system (eV)
  ---------------------------------------------------
  alpha Z        PSCENC =         9.31836840
  Ewald energy   TEWEN  =      7464.19428679
  -Hartree energ DENC   =    -14561.40702432
  -exchange      EXHF   =         0.00000000
  -V(xc)+E(xc)   XCENC  =     -2013.75456466
  PAW double counting   =      6892.66296676    -7095.29799587
  entropy T*S    EENTRO =         0.00000000
  eigenvalues    EBANDS = ******************
  atomic energy  EATOM  =      7408.66657912
  ---------------------------------------------------
  free energy    TOTEN  = ****************** eV

  energy without entropy =******************  energy(sigma->0) =******************


--------------------------------------------------------------------------------------------------------




--------------------------------------- Iteration      1(   5)  ---------------------------------------


    TRIAL :  cpu time      2.7657: real time      2.7659
    CORREC:  cpu time      0.0003: real time      0.0003
    CHARGE:  cpu time      0.2564: real time      0.2568
    --------------------------------------------
      LOOP:  cpu time      3.0264: real time      3.0301

 eigenvalue-minimisations  :   384
 total energy-change (2. order) :-0.2953987E+04  (-0.2953987E+04)
 number of electron      88.0000000 magnetization 
 augmentation part        0.0000105 magnetization 

 Free energy of the ion-electron system (eV)
  ---------------------------------------------------
  alpha Z        PSCENC =         9.31836840
  Ewald energy   TEWEN  =      7464.19428679
  -Hartree energ DENC   =    -14561.40702432
  -exchange      EXHF   =         0.00000000
  -V(xc)+E(xc)   XCENC  =     -2013.75456466
  PAW double counting   =      6892.66296676    -7095.29799587
  entropy T*S    EENTRO =         0.00000000
  eigenvalues    EBANDS = ******************
  atomic energy  EATOM  =      7408.66657912
  ---------------------------------------------------
  free energy    TOTEN  = ****************** eV

  energy without entropy =******************  energy(sigma->0) =******************


--------------------------------------------------------------------------------------------------------




--------------------------------------- Iteration      1(   6)  ---------------------------------------


    POTLOK:  cpu time      0.4093: real time      0.4094
    SETDIJ:  cpu time      0.8921: real time      0.8921
    TRIAL :  cpu time      2.1278: real time      2.1286
    CORREC:  cpu time      1.7875: real time      1.7877
    CHARGE:  cpu time      0.2503: real time      0.2503
    --------------------------------------------
      LOOP:  cpu time      5.4750: real time      5.4788

 eigenvalue-minimisations  :     0
 total energy-change (2. order) : 0.3351195E+11  ( 0.4349133E+03)
 number of electron      88.0000000 magnetization 
 augmentation part       -0.0000751 magnetization 

 Free energy of the ion-electron system (eV)
  ---------------------------------------------------
  alpha Z        PSCENC =         9.31836840
  Ewald energy   TEWEN  =      7464.19428679
  -Hartree energ DENC   =    -14524.40435904
  -exchange      EXHF   =         0.00000000
  -V(xc)+E(xc)   XCENC  =       450.11994351
  PAW double counting   =       143.73778104     -343.37946257
  entropy T*S    EENTRO =         0.00000000
  eigenvalues    EBANDS =     44945.96895494
  atomic energy  EATOM  =      7408.66657912
  ---------------------------------------------------
  free energy    TOTEN  =     45554.22209220 eV

  energy without entropy =    45554.22209220  energy(sigma->0) =    45554.22209220


--------------------------------------------------------------------------------------------------------




--------------------------------------- Iteration      1(   7)  ---------------------------------------


    POTLOK:  cpu time      0.4101: real time      0.4102
    SETDIJ:  cpu time      0.8861: real time      0.8862
    TRIAL :  cpu time      0.9714: real time      0.9714
    CORREC:  cpu time      1.7891: real time      1.7892
    CHARGE:  cpu time      0.2513: real time      0.2513
    --------------------------------------------
      LOOP:  cpu time      4.3195: real time      4.3200

 eigenvalue-minimisations  :     0
 total energy-change (2. order) :-0.1141154E+04  ( 0.6374398E+04)
 number of electron      88.0000000 magnetization 
 augmentation part       -0.1012385 magnetization 

 Free energy of the ion-electron system (eV)
  ---------------------------------------------------
  alpha Z        PSCENC =         9.31836840
  Ewald energy   TEWEN  =      7464.19428679
  -Hartree energ DENC   =    -14883.72288968
  -exchange      EXHF   =         0.00000000
  -V(xc)+E(xc)   XCENC  =       495.76627710
  PAW double counting   =       143.69997204     -343.34166028
  entropy T*S    EENTRO =         0.00000000
  eigenvalues    EBANDS =     44118.48676273
  atomic energy  EATOM  =      7408.66657912
  ---------------------------------------------------
  free energy    TOTEN  =     44413.06769622 eV

  energy without entropy =    44413.06769622  energy(sigma->0) =    44413.06769622


--------------------------------------------------------------------------------------------------------




--------------------------------------- Iteration      1(   8)  ---------------------------------------


    POTLOK:  cpu time      0.4068: real time      0.4068
    SETDIJ:  cpu time      0.8945: real time      0.8946
    TRIAL :  cpu time      0.9697: real time      0.9698
    CORREC:  cpu time      1.8342: real time      1.8348
    CHARGE:  cpu time      0.2507: real time      0.2508
    --------------------------------------------
      LOOP:  cpu time      4.3635: real time      4.3683

 eigenvalue-minimisations  :     0
 total energy-change (2. order) :-0.1727249E+05  (-0.2441697E+05)
 number of electron      88.0000000 magnetization 
 augmentation part       -0.2438074 magnetization 

 Free energy of the ion-electron system (eV)
  ---------------------------------------------------
  alpha Z        PSCENC =         9.31836840
  Ewald energy   TEWEN  =      7464.19428679
  -Hartree energ DENC   =    -10760.64776530
  -exchange      EXHF   =         0.00000000
  -V(xc)+E(xc)   XCENC  =       183.84854421
  PAW double counting   =       302.33654009     -501.96675191
  entropy T*S    EENTRO =         0.00000000
  eigenvalues    EBANDS =     23034.83088341
  atomic energy  EATOM  =      7408.66657912
  ---------------------------------------------------
  free energy    TOTEN  =     27140.58068481 eV

  energy without entropy =    27140.58068481  energy(sigma->0) =    27140.58068481


--------------------------------------------------------------------------------------------------------




--------------------------------------- Iteration      1(   9)  ---------------------------------------


    POTLOK:  cpu time      0.4144: real time      0.4145
    SETDIJ:  cpu time      0.8915: real time      0.8916
    TRIAL :  cpu time      0.9692: real time      0.9693
    CORREC:  cpu time      1.8368: real time      1.8369
    CHARGE:  cpu time      0.2496: real time      0.2496
    --------------------------------------------
      LOOP:  cpu time      4.3723: real time      4.3729

 eigenvalue-minimisations  :     0
 total energy-change (2. order) :-0.5826139E+04  (-0.1625649E+05)
 number of electron      88.0000000 magnetization 
 augmentation part       -0.2370978 magnetization 

 Free energy of the ion-electron system (eV)
  ---------------------------------------------------
  alpha Z        PSCENC =         9.31836840
  Ewald energy   TEWEN  =      7464.19428679
  -Hartree energ DENC   =     -7453.13633283
  -exchange      EXHF   =         0.00000000
  -V(xc)+E(xc)   XCENC  =        56.15557112
  PAW double counting   =       369.45238116     -569.40086489
  entropy T*S    EENTRO =         0.00000000
  eigenvalues    EBANDS =     14029.19143244
  atomic energy  EATOM  =      7408.66657912
  ---------------------------------------------------
  free energy    TOTEN  =     21314.44142132 eV

  energy without entropy =    21314.44142132  energy(sigma->0) =    21314.44142132


--------------------------------------------------------------------------------------------------------




--------------------------------------- Iteration      1(  10)  ---------------------------------------


    POTLOK:  cpu time      0.4142: real time      0.4142
    SETDIJ:  cpu time      0.8929: real time      0.8929
    TRIAL :  cpu time      0.9690: real time      0.9691
    CORREC:  cpu time      1.8419: real time      1.8420
    CHARGE:  cpu time      0.2488: real time      0.2488
    --------------------------------------------
      LOOP:  cpu time      4.3778: real time      4.3783

 eigenvalue-minimisations  :     0
 total energy-change (2. order) : 0.1658739E+04  (-0.1829625E+05)
 number of electron      88.0000000 magnetization 
 augmentation part       -0.0629100 magnetization 

 Free energy of the ion-electron system (eV)
  ---------------------------------------------------
  alpha Z        PSCENC =         9.31836840
  Ewald energy   TEWEN  =      7464.19428679
  -Hartree energ DENC   =     -7285.02596825
  -exchange      EXHF   =         0.00000000
  -V(xc)+E(xc)   XCENC  =        21.46858221
  PAW double counting   =       291.31609975     -491.29009746
  entropy T*S    EENTRO =         0.00000000
  eigenvalues    EBANDS =     15554.53304437
  atomic energy  EATOM  =      7408.66657912
  ---------------------------------------------------
  free energy    TOTEN  =     22973.18089493 eV

  energy without entropy =    22973.18089493  energy(sigma->0) =    22973.18089493


--------------------------------------------------------------------------------------------------------




--------------------------------------- Iteration      1(  11)  ---------------------------------------


    POTLOK:  cpu time      0.4149: real time      0.4153
    SETDIJ:  cpu time      0.8922: real time      0.8922
    TRIAL :  cpu time      0.9720: real time      0.9720
    CORREC:  cpu time      1.8341: real time      1.8342
    CHARGE:  cpu time      0.2487: real time      0.2488
    --------------------------------------------
      LOOP:  cpu time      4.3730: real time      4.3740

 eigenvalue-minimisations  :     0
 total energy-change (2. order) : 0.5601117E+04  (-0.1664233E+05)
 number of electron      88.0000000 magnetization 
 augmentation part       -0.0503355 magnetization 

 Free energy of the ion-electron system (eV)
  ---------------------------------------------------
  alpha Z        PSCENC =         9.31836840
  Ewald energy   TEWEN  =      7464.19428679
  -Hartree energ DENC   =     -8807.14899028
  -exchange      EXHF   =         0.00000000
  -V(xc)+E(xc)   XCENC  =       110.77947173
  PAW double counting   =       211.32153061     -411.17494600
  entropy T*S    EENTRO =         0.00000000
  eigenvalues    EBANDS =     22588.34196446
  atomic energy  EATOM  =      7408.66657912
  ---------------------------------------------------
  free energy    TOTEN  =     28574.29826482 eV

  energy without entropy =    28574.29826482  energy(sigma->0) =    28574.29826482


--------------------------------------------------------------------------------------------------------




--------------------------------------- Iteration      1(  12)  ---------------------------------------


    POTLOK:  cpu time      0.4118: real time      0.4118
    SETDIJ:  cpu time      0.8928: real time      0.8928
    TRIAL :  cpu time      0.9724: real time      0.9725
    CORREC:  cpu time      1.8313: real time      1.8314
    CHARGE:  cpu time      0.2486: real time      0.2486
    --------------------------------------------
      LOOP:  cpu time      4.3679: real time      4.3685

 eigenvalue-minimisations  :     0
 total energy-change (2. order) : 0.5069163E+04  (-0.1364672E+05)
 number of electron      88.0000000 magnetization 
 augmentation part       -0.0700031 magnetization 

 Free energy of the ion-electron system (eV)
  ---------------------------------------------------
  alpha Z        PSCENC =         9.31836840
  Ewald energy   TEWEN  =      7464.19428679
  -Hartree energ DENC   =    -10496.84551225
  -exchange      EXHF   =         0.00000000
  -V(xc)+E(xc)   XCENC  =       234.98809736
  PAW double counting   =       159.74685892     -359.48903702
  entropy T*S    EENTRO =         0.00000000
  eigenvalues    EBANDS =     29222.88150797
  atomic energy  EATOM  =      7408.66657912
  ---------------------------------------------------
  free energy    TOTEN  =     33643.46114929 eV

  energy without entropy =    33643.46114929  energy(sigma->0) =    33643.46114929


--------------------------------------------------------------------------------------------------------




--------------------------------------- Iteration      1(  13)  ---------------------------------------


    POTLOK:  cpu time      0.4133: real time      0.4133
    SETDIJ:  cpu time      0.8947: real time      0.8948
    TRIAL :  cpu time      0.9675: real time      0.9687
    CORREC:  cpu time      1.8324: real time      1.8325
    CHARGE:  cpu time      0.2501: real time      0.2502
    --------------------------------------------
      LOOP:  cpu time      4.3694: real time      4.3711

 eigenvalue-minimisations  :     0
 total energy-change (2. order) : 0.2785315E+04  (-0.1563426E+05)
 number of electron      88.0000000 magnetization 
 augmentation part       -0.0493679 magnetization 

 Free energy of the ion-electron system (eV)
  ---------------------------------------------------
  alpha Z        PSCENC =         9.31836840
  Ewald energy   TEWEN  =      7464.19428679
  -Hartree energ DENC   =    -11426.36532309
  -exchange      EXHF   =         0.00000000
  -V(xc)+E(xc)   XCENC  =       287.80504255
  PAW double counting   =       161.15397179     -360.94234899
  entropy T*S    EENTRO =         0.00000000
  eigenvalues    EBANDS =     32884.94523929
  atomic energy  EATOM  =      7408.66657912
  ---------------------------------------------------
  free energy    TOTEN  =     36428.77581587 eV

  energy without entropy =    36428.77581587  energy(sigma->0) =    36428.77581587


--------------------------------------------------------------------------------------------------------




--------------------------------------- Iteration      1(  14)  ---------------------------------------


    POTLOK:  cpu time      0.4123: real time      0.4124
    SETDIJ:  cpu time      0.8915: real time      0.8915
    TRIAL :  cpu time      0.9721: real time      0.9721
    CORREC:  cpu time      1.8345: real time      1.8346
    CHARGE:  cpu time      0.2494: real time      0.2494
    --------------------------------------------
      LOOP:  cpu time      4.3687: real time      4.3710

 eigenvalue-minimisations  :     0
 total energy-change (2. order) :-0.3277317E+04  (-0.7729775E+04)
 number of electron      88.0000000 magnetization 
 augmentation part       -0.4982356 magnetization 

 Free energy of the ion-electron system (eV)
  ---------------------------------------------------
  alpha Z        PSCENC =         9.31836840
  Ewald energy   TEWEN  =      7464.19428679
  -Hartree energ DENC   =     -9762.07033092
  -exchange      EXHF   =         0.00000000
  -V(xc)+E(xc)   XCENC  =       193.85512228
  PAW double counting   =       150.89145384     -350.57420676
  entropy T*S    EENTRO =         0.00000000
  eigenvalues    EBANDS =     28037.17758714
  atomic energy  EATOM  =      7408.66657912
  ---------------------------------------------------
  free energy    TOTEN  =     33151.45885988 eV

  energy without entropy =    33151.45885988  energy(sigma->0) =    33151.45885988


--------------------------------------------------------------------------------------------------------




--------------------------------------- Iteration      1(  15)  ---------------------------------------


    POTLOK:  cpu time      0.4103: real time      0.4103
    SETDIJ:  cpu time      0.8984: real time      0.8985
    TRIAL :  cpu time      0.9686: real time      0.9687
    CORREC:  cpu time      1.8327: real time      1.8334
    CHARGE:  cpu time      0.2483: real time      0.2483
    --------------------------------------------
      LOOP:  cpu time      4.3654: real time      4.3707

 eigenvalue-minimisations  :     0
 total energy-change (2. order) :-0.1469778E+05  (-0.1123337E+05)
 number of electron      88.0000000 magnetization 
 augmentation part       -1.1385693 magnetization 

 Free energy of the ion-electron system (eV)
  ---------------------------------------------------
  alpha Z        PSCENC =         9.31836840
  Ewald energy   TEWEN  =      7464.19428679
  -Hartree energ DENC   =     -4662.74605849
  -exchange      EXHF   =         0.00000000
  -V(xc)+E(xc)   XCENC  =       -86.81074201
  PAW double counting   =       570.90689411     -771.28312067
  entropy T*S    EENTRO =         0.00000000
  eigenvalues    EBANDS =      8521.43664190
  atomic energy  EATOM  =      7408.66657912
  ---------------------------------------------------
  free energy    TOTEN  =     18453.68284915 eV

  energy without entropy =    18453.68284915  energy(sigma->0) =    18453.68284915


--------------------------------------------------------------------------------------------------------




--------------------------------------- Iteration      1(  16)  ---------------------------------------


    POTLOK:  cpu time      0.4137: real time      0.4137
    SETDIJ:  cpu time      0.8942: real time      0.8943
    TRIAL :  cpu time      0.9686: real time      0.9686
    CORREC:  cpu time      1.8304: real time      1.8305
    CHARGE:  cpu time      0.2512: real time      0.2512
    --------------------------------------------
      LOOP:  cpu time      4.3660: real time      4.3697

 eigenvalue-minimisations  :     0
 total energy-change (2. order) :-0.1069648E+05  (-0.2682615E+04)
 number of electron      87.9999999 magnetization 
 augmentation part       -1.2889100 magnetization 

 Free energy of the ion-electron system (eV)
  ---------------------------------------------------
  alpha Z        PSCENC =         9.31836840
  Ewald energy   TEWEN  =      7464.19428679
  -Hartree energ DENC   =     -3419.83479009
  -exchange      EXHF   =         0.00000000
  -V(xc)+E(xc)   XCENC  =       -73.86349507
  PAW double counting   =      1733.39279466    -1942.39836603
  entropy T*S    EENTRO =         0.00000000
  eigenvalues    EBANDS =     -3422.27234378
  atomic energy  EATOM  =      7408.66657912
  ---------------------------------------------------
  free energy    TOTEN  =      7757.20303401 eV

  energy without entropy =     7757.20303401  energy(sigma->0) =     7757.20303401


--------------------------------------------------------------------------------------------------------




--------------------------------------- Iteration      1(  17)  ---------------------------------------


    POTLOK:  cpu time      0.4234: real time      0.4234
    SETDIJ:  cpu time      0.8864: real time      0.8864
    TRIAL :  cpu time      0.9686: real time      0.9687
    CORREC:  cpu time      1.8334: real time      1.8346
    CHARGE:  cpu time      0.2482: real time      0.2483
    --------------------------------------------
      LOOP:  cpu time      4.3669: real time      4.3727

 eigenvalue-minimisations  :     0
 total energy-change (2. order) :-0.2496410E+04  (-0.1342020E+04)
 number of electron      88.0000000 magnetization 
 augmentation part       -0.6843388 magnetization 

 Free energy of the ion-electron system (eV)
  ---------------------------------------------------
  alpha Z        PSCENC =         9.31836840
  Ewald energy   TEWEN  =      7464.19428679
  -Hartree energ DENC   =     -4294.89659815
  -exchange      EXHF   =         0.00000000
  -V(xc)+E(xc)   XCENC  =       -32.58538228
  PAW double counting   =      2244.52631318    -2461.62829806
  entropy T*S    EENTRO =         0.00000000
  eigenvalues    EBANDS =     -5076.80206169
  atomic energy  EATOM  =      7408.66657912
  ---------------------------------------------------
  free energy    TOTEN  =      5260.79320731 eV

  energy without entropy =     5260.79320731  energy(sigma->0) =     5260.79320731


--------------------------------------------------------------------------------------------------------




--------------------------------------- Iteration      1(  18)  ---------------------------------------


    POTLOK:  cpu time      0.4120: real time      0.4121
    SETDIJ:  cpu time      0.8959: real time      0.8960
    TRIAL :  cpu time      0.9712: real time      0.9713
    CORREC:  cpu time      1.8351: real time      1.8353
    CHARGE:  cpu time      0.2507: real time      0.2507
    --------------------------------------------
      LOOP:  cpu time      4.3763: real time      4.3770

 eigenvalue-minimisations  :     0
 total energy-change (2. order) :-0.1382222E+04  (-0.1041726E+04)
 number of electron      88.0000000 magnetization 
 augmentation part        1.4876104 magnetization 

 Free energy of the ion-electron system (eV)
  ---------------------------------------------------
  alpha Z        PSCENC =         9.31836840
  Ewald energy   TEWEN  =      7464.19428679
  -Hartree energ DENC   =     -5910.56802926
  -exchange      EXHF   =         0.00000000
  -V(xc)+E(xc)   XCENC  =        -5.07986448
  PAW double counting   =      3198.37711571    -3427.74756845
  entropy T*S    EENTRO =         0.00000000
  eigenvalues    EBANDS =     -4858.58977578
  atomic energy  EATOM  =      7408.66657912
  ---------------------------------------------------
  free energy    TOTEN  =      3878.57111205 eV

  energy without entropy =     3878.57111205  energy(sigma->0) =     3878.57111205


--------------------------------------------------------------------------------------------------------




--------------------------------------- Iteration      1(  19)  ---------------------------------------


    POTLOK:  cpu time      0.4114: real time      0.4115
    SETDIJ:  cpu time      0.8925: real time      0.8926
    TRIAL :  cpu time      0.9683: real time      0.9683
    CORREC:  cpu time      1.8364: real time      1.8365
    CHARGE:  cpu time      0.2507: real time      0.2507
    --------------------------------------------
      LOOP:  cpu time      4.3687: real time      4.3712

 eigenvalue-minimisations  :     0
 total energy-change (2. order) :-0.1118490E+04  (-0.8800493E+03)
 number of electron      88.0000001 magnetization 
 augmentation part        5.3955973 magnetization 

 Free energy of the ion-electron system (eV)
  ---------------------------------------------------
  alpha Z        PSCENC =         9.31836840
  Ewald energy   TEWEN  =      7464.19428679
  -Hartree energ DENC   =     -7593.32862412
  -exchange      EXHF   =         0.00000000
  -V(xc)+E(xc)   XCENC  =        20.57085797
  PAW double counting   =      6027.32848874    -6276.48899390
  entropy T*S    EENTRO =         0.00000000
  eigenvalues    EBANDS =     -4300.18034027
  atomic energy  EATOM  =      7408.66657912
  ---------------------------------------------------
  free energy    TOTEN  =      2760.08062274 eV

  energy without entropy =     2760.08062274  energy(sigma->0) =     2760.08062274


--------------------------------------------------------------------------------------------------------




--------------------------------------- Iteration      1(  20)  ---------------------------------------


    POTLOK:  cpu time      0.4104: real time      0.4104
    SETDIJ:  cpu time      0.8927: real time      0.8932
    TRIAL :  cpu time      0.9698: real time      0.9699
    CORREC:  cpu time      1.8359: real time      1.8360
    CHARGE:  cpu time      0.2499: real time      0.2499
    --------------------------------------------
      LOOP:  cpu time      4.3671: real time      4.3710

 eigenvalue-minimisations  :     0
 total energy-change (2. order) :-0.9876793E+03  (-0.9449010E+02)
 number of electron      88.0000000 magnetization 
 augmentation part        4.3308204 magnetization 

 Free energy of the ion-electron system (eV)
  ---------------------------------------------------
  alpha Z        PSCENC =         9.31836840
  Ewald energy   TEWEN  =      7464.19428679
  -Hartree energ DENC   =     -9095.30147200
  -exchange      EXHF   =         0.00000000
  -V(xc)+E(xc)   XCENC  =        43.43685589
  PAW double counting   =     12996.90968317   -13266.24164236
  entropy T*S    EENTRO =         0.00000000
  eigenvalues    EBANDS =     -3788.58134294
  atomic energy  EATOM  =      7408.66657912
  ---------------------------------------------------
  free energy    TOTEN  =      1772.40131608 eV

  energy without entropy =     1772.40131608  energy(sigma->0) =     1772.40131608


--------------------------------------------------------------------------------------------------------




--------------------------------------- Iteration      1(  21)  ---------------------------------------


    POTLOK:  cpu time      0.4114: real time      0.4114
    SETDIJ:  cpu time      0.8928: real time      0.8928
    TRIAL :  cpu time      0.9667: real time      0.9668
    CORREC:  cpu time      1.8334: real time      1.8335
    CHARGE:  cpu time      0.2509: real time      0.2509
    --------------------------------------------
      LOOP:  cpu time      4.3666: real time      4.3670

 eigenvalue-minimisations  :     0
 total energy-change (2. order) : 0.5406818E+02  (-0.6469132E+03)
 number of electron      88.0000001 magnetization 
 augmentation part        9.5443534 magnetization 

 Free energy of the ion-electron system (eV)
  ---------------------------------------------------
  alpha Z        PSCENC =         9.31836840
  Ewald energy   TEWEN  =      7464.19428679
  -Hartree energ DENC   =     -8964.74664241
  -exchange      EXHF   =         0.00000000
  -V(xc)+E(xc)   XCENC  =        43.17809203
  PAW double counting   =     14293.30087681   -14561.65611890
  entropy T*S    EENTRO =         0.00000000
  eigenvalues    EBANDS =     -3865.78594959
  atomic energy  EATOM  =      7408.66657912
  ---------------------------------------------------
  free energy    TOTEN  =      1826.46949225 eV

  energy without entropy =     1826.46949225  energy(sigma->0) =     1826.46949225


--------------------------------------------------------------------------------------------------------




--------------------------------------- Iteration      1(  22)  ---------------------------------------


    POTLOK:  cpu time      0.4146: real time      0.4146
    SETDIJ:  cpu time      0.8911: real time      0.8911
    TRIAL :  cpu time      0.9677: real time      0.9688
    CORREC:  cpu time      1.8310: real time      1.8310
    CHARGE:  cpu time      0.2483: real time      0.2483
    --------------------------------------------
      LOOP:  cpu time      4.3627: real time      4.3648

 eigenvalue-minimisations  :     0
 total energy-change (2. order) :-0.6799320E+03  (-0.4752632E+03)
 number of electron      88.0000001 magnetization 
 augmentation part       16.0238396 magnetization 

 Free energy of the ion-electron system (eV)
  ---------------------------------------------------
  alpha Z        PSCENC =         9.31836840
  Ewald energy   TEWEN  =      7464.19428679
  -Hartree energ DENC   =     -9971.56886378
  -exchange      EXHF   =         0.00000000
  -V(xc)+E(xc)   XCENC  =        67.73521705
  PAW double counting   =     27272.06188245   -27567.20593701
  entropy T*S    EENTRO =         0.00000000
  eigenvalues    EBANDS =     -3536.66399295
  atomic energy  EATOM  =      7408.66657912
  ---------------------------------------------------
  free energy    TOTEN  =      1146.53754008 eV

  energy without entropy =     1146.53754008  energy(sigma->0) =     1146.53754008


--------------------------------------------------------------------------------------------------------




--------------------------------------- Iteration      1(  23)  ---------------------------------------


    POTLOK:  cpu time      0.4093: real time      0.4094
    SETDIJ:  cpu time      0.8932: real time      0.8932
    TRIAL :  cpu time      0.9700: real time      0.9700
    CORREC:  cpu time      1.8302: real time      1.8303
    CHARGE:  cpu time      0.2472: real time      0.2472
    --------------------------------------------
      LOOP:  cpu time      4.3607: real time      4.3614

 eigenvalue-minimisations  :     0
 total energy-change (2. order) :-0.4694277E+03  (-0.6738810E+01)
 number of electron      88.0000001 magnetization 
 augmentation part       14.9225465 magnetization 

 Free energy of the ion-electron system (eV)
  ---------------------------------------------------
  alpha Z        PSCENC =         9.31836840
  Ewald energy   TEWEN  =      7464.19428679
  -Hartree energ DENC   =    -11494.20102706
  -exchange      EXHF   =         0.00000000
  -V(xc)+E(xc)   XCENC  =       119.29958467
  PAW double counting   =     55498.83780460   -55835.41039386
  entropy T*S    EENTRO =         0.00000000
  eigenvalues    EBANDS =     -2493.59537531
  atomic energy  EATOM  =      7408.66657912
  ---------------------------------------------------
  free energy    TOTEN  =       677.10982735 eV

  energy without entropy =      677.10982735  energy(sigma->0) =      677.10982735


--------------------------------------------------------------------------------------------------------




--------------------------------------- Iteration      1(  24)  ---------------------------------------


    POTLOK:  cpu time      0.4062: real time      0.4062
    SETDIJ:  cpu time      0.8919: real time      0.8920
    TRIAL :  cpu time      0.9676: real time      0.9677
    CORREC:  cpu time      1.8217: real time      1.8220
    CHARGE:  cpu time      0.2478: real time      0.2478
    --------------------------------------------
      LOOP:  cpu time      4.3423: real time      4.3466

 eigenvalue-minimisations  :     0
 total energy-change (2. order) : 0.3965066E+02  (-0.1294580E+03)
 number of electron      88.0000001 magnetization 
 augmentation part       16.0990138 magnetization 

 Free energy of the ion-electron system (eV)
  ---------------------------------------------------
  alpha Z        PSCENC =         9.31836840
  Ewald energy   TEWEN  =      7464.19428679
  -Hartree energ DENC   =    -11402.64452268
  -exchange      EXHF   =         0.00000000
  -V(xc)+E(xc)   XCENC  =       114.60624629
  PAW double counting   =     57726.31041083   -58061.24379588
  entropy T*S    EENTRO =         0.00000000
  eigenvalues    EBANDS =     -2542.44708974
  atomic energy  EATOM  =      7408.66657912
  ---------------------------------------------------
  free energy    TOTEN  =       716.76048314 eV

  energy without entropy =      716.76048314  energy(sigma->0) =      716.76048314


--------------------------------------------------------------------------------------------------------




--------------------------------------- Iteration      1(  25)  ---------------------------------------


    POTLOK:  cpu time      0.4055: real time      0.4055
    SETDIJ:  cpu time      0.8918: real time      0.8919
    TRIAL :  cpu time      0.9701: real time      0.9702
    CORREC:  cpu time      7.3044: real time      7.3047
    CHARGE:  cpu time      0.2484: real time      0.2484
    --------------------------------------------
      LOOP:  cpu time      9.8305: real time      9.8312

 eigenvalue-minimisations  :     0
 total energy-change (2. order) :-0.1397643E+03  ( 0.9074583E+02)
 number of electron      88.0000003 magnetization 
 augmentation part       15.0644660 magnetization 

 Free energy of the ion-electron system (eV)
  ---------------------------------------------------
  alpha Z        PSCENC =         9.31836840
  Ewald energy   TEWEN  =      7464.19428679
  -Hartree energ DENC   =    -11881.79193685
  -exchange      EXHF   =         0.00000000
  -V(xc)+E(xc)   XCENC  =       128.15498161
  PAW double counting   =     59446.94536165   -59785.81100238
  entropy T*S    EENTRO =         0.00000000
  eigenvalues    EBANDS =     -2212.68049958
  atomic energy  EATOM  =      7408.66657912
  ---------------------------------------------------
  free energy    TOTEN  =       576.99613876 eV

  energy without entropy =      576.99613876  energy(sigma->0) =      576.99613876


--------------------------------------------------------------------------------------------------------




--------------------------------------- Iteration      1(  26)  ---------------------------------------


    POTLOK:  cpu time      0.4093: real time      0.4099
    SETDIJ:  cpu time      0.8921: real time      0.8921
    TRIAL :  cpu time      0.9704: real time      0.9704
    CORREC:  cpu time      1.8288: real time      1.8289
    CHARGE:  cpu time      0.2481: real time      0.2481
    --------------------------------------------
      LOOP:  cpu time      4.3596: real time      4.3607

 eigenvalue-minimisations  :     0
 total energy-change (2. order) : 0.4723558E+03  (-0.2090900E+03)
 number of electron      88.0000004 magnetization 
 augmentation part       16.4074269 magnetization 

 Free energy of the ion-electron system (eV)
  ---------------------------------------------------
  alpha Z        PSCENC =         9.31836840
  Ewald energy   TEWEN  =      7464.19428679
  -Hartree energ DENC   =    -10282.66357000
  -exchange      EXHF   =         0.00000000
  -V(xc)+E(xc)   XCENC  =        94.41339281
  PAW double counting   =     78391.99168412   -78704.87684604
  entropy T*S    EENTRO =         0.00000000
  eigenvalues    EBANDS =     -3331.69199286
  atomic energy  EATOM  =      7408.66657912
  ---------------------------------------------------
  free energy    TOTEN  =      1049.35190235 eV

  energy without entropy =     1049.35190235  energy(sigma->0) =     1049.35190235


--------------------------------------------------------------------------------------------------------




--------------------------------------- Iteration      1(  27)  ---------------------------------------


    POTLOK:  cpu time      0.4083: real time      0.4083
    SETDIJ:  cpu time      0.8926: real time      0.8927
    TRIAL :  cpu time      0.9693: real time      0.9693
    CORREC:  cpu time      1.8189: real time      1.8190
    CHARGE:  cpu time      0.2475: real time      0.2475
    --------------------------------------------
      LOOP:  cpu time      4.3425: real time      4.3469

 eigenvalue-minimisations  :     0
 total energy-change (2. order) :-0.1913150E+03  (-0.6004201E+02)
 number of electron      88.0000004 magnetization 
 augmentation part       16.9596512 magnetization 

 Free energy of the ion-electron system (eV)
  ---------------------------------------------------
  alpha Z        PSCENC =         9.31836840
  Ewald energy   TEWEN  =      7464.19428679
  -Hartree energ DENC   =    -11348.68174204
  -exchange      EXHF   =         0.00000000
  -V(xc)+E(xc)   XCENC  =       116.35439294
  PAW double counting   =     98848.82279372   -99175.29940413
  entropy T*S    EENTRO =         0.00000000
  eigenvalues    EBANDS =     -2465.33840120
  atomic energy  EATOM  =      7408.66657912
  ---------------------------------------------------
  free energy    TOTEN  =       858.03687360 eV

  energy without entropy =      858.03687360  energy(sigma->0) =      858.03687360


--------------------------------------------------------------------------------------------------------




--------------------------------------- Iteration      1(  28)  ---------------------------------------


    POTLOK:  cpu time      0.4015: real time      0.4015
    SETDIJ:  cpu time      0.8936: real time      0.8936
    TRIAL :  cpu time      0.9674: real time      0.9675
    CORREC:  cpu time      1.7788: real time      1.7789
    CHARGE:  cpu time      0.2444: real time      0.2444
    --------------------------------------------
      LOOP:  cpu time      4.2924: real time      4.2964

 eigenvalue-minimisations  :     0
 total energy-change (2. order) :-0.5932965E+02  ( 0.6056272E+02)
 number of electron      88.0000004 magnetization 
 augmentation part       17.4506988 magnetization 

 Free energy of the ion-electron system (eV)
  ---------------------------------------------------
  alpha Z        PSCENC =         9.31836840
  Ewald energy   TEWEN  =      7464.19428679
  -Hartree energ DENC   =    -11919.08299758
  -exchange      EXHF   =         0.00000000
  -V(xc)+E(xc)   XCENC  =       126.02563107
  PAW double counting   =    120798.52350119  -121131.37339364
  entropy T*S    EENTRO =         0.00000000
  eigenvalues    EBANDS =     -1957.56474819
  atomic energy  EATOM  =      7408.66657912
  ---------------------------------------------------
  free energy    TOTEN  =       798.70722717 eV

  energy without entropy =      798.70722717  energy(sigma->0) =      798.70722717


--------------------------------------------------------------------------------------------------------




--------------------------------------- Iteration      1(  29)  ---------------------------------------


    POTLOK:  cpu time      0.4026: real time      0.4026
    SETDIJ:  cpu time      0.8893: real time      0.8894
    TRIAL :  cpu time      0.9693: real time      0.9694
    CORREC:  cpu time      7.2903: real time      7.2908
    CHARGE:  cpu time      0.2446: real time      0.2446
    --------------------------------------------
      LOOP:  cpu time      9.8072: real time      9.8082

 eigenvalue-minimisations  :     0
 total energy-change (2. order) :-0.3926843E+02  ( 0.5578118E+02)
 number of electron      88.0000001 magnetization 
 augmentation part       15.8701564 magnetization 

 Free energy of the ion-electron system (eV)
  ---------------------------------------------------
  alpha Z        PSCENC =         9.31836840
  Ewald energy   TEWEN  =      7464.19428679
  -Hartree energ DENC   =    -12132.29132284
  -exchange      EXHF   =         0.00000000
  -V(xc)+E(xc)   XCENC  =       130.47097444
  PAW double counting   =    126664.45400766  -126998.45824584
  entropy T*S    EENTRO =         0.00000000
  eigenvalues    EBANDS =     -1786.91585522
  atomic energy  EATOM  =      7408.66657912
  ---------------------------------------------------
  free energy    TOTEN  =       759.43879251 eV

  energy without entropy =      759.43879251  energy(sigma->0) =      759.43879251


--------------------------------------------------------------------------------------------------------




--------------------------------------- Iteration      1(  30)  ---------------------------------------


    POTLOK:  cpu time      0.4075: real time      0.4076
    SETDIJ:  cpu time      0.8880: real time      0.8880
    TRIAL :  cpu time      0.9686: real time      0.9687
    CORREC:  cpu time      1.8179: real time      1.8180
    CHARGE:  cpu time      0.2454: real time      0.2454
    --------------------------------------------
      LOOP:  cpu time      4.3331: real time      4.3380

 eigenvalue-minimisations  :     0
 total energy-change (2. order) :-0.2363073E+03  (-0.7340838E+02)
 number of electron      88.0000001 magnetization 
 augmentation part       17.0361496 magnetization 

 Free energy of the ion-electron system (eV)
  ---------------------------------------------------
  alpha Z        PSCENC =         9.31836840
  Ewald energy   TEWEN  =      7464.19428679
  -Hartree energ DENC   =    -11952.59040406
  -exchange      EXHF   =         0.00000000
  -V(xc)+E(xc)   XCENC  =       128.32984293
  PAW double counting   =     84232.50201137   -84561.28072377
  entropy T*S    EENTRO =        -0.00000000
  eigenvalues    EBANDS =     -2206.00850400
  atomic energy  EATOM  =      7408.66657912
  ---------------------------------------------------
  free energy    TOTEN  =       523.13145679 eV

  energy without entropy =      523.13145679  energy(sigma->0) =      523.13145679


--------------------------------------------------------------------------------------------------------




--------------------------------------- Iteration      1(  31)  ---------------------------------------


    POTLOK:  cpu time      0.4043: real time      0.4043
    SETDIJ:  cpu time      0.8915: real time      0.8915
    TRIAL :  cpu time      0.9687: real time      0.9688
    CORREC:  cpu time      1.8181: real time      1.8187
    CHARGE:  cpu time      0.2456: real time      0.2456
    --------------------------------------------
      LOOP:  cpu time      4.3381: real time      4.3391

 eigenvalue-minimisations  :     0
 total energy-change (2. order) :-0.7042198E+02  (-0.9437674E+01)
 number of electron      88.0000001 magnetization 
 augmentation part       16.4404463 magnetization 

 Free energy of the ion-electron system (eV)
  ---------------------------------------------------
  alpha Z        PSCENC =         9.31836840
  Ewald energy   TEWEN  =      7464.19428679
  -Hartree energ DENC   =    -12331.64290060
  -exchange      EXHF   =         0.00000000
  -V(xc)+E(xc)   XCENC  =       138.25394414
  PAW double counting   =     91442.68004596   -91778.53145910
  entropy T*S    EENTRO =        -0.00006845
  eigenvalues    EBANDS =     -1900.22938967
  atomic energy  EATOM  =      7408.66657912
  ---------------------------------------------------
  free energy    TOTEN  =       452.70947504 eV

  energy without entropy =      452.70954349  energy(sigma->0) =      452.70950927


--------------------------------------------------------------------------------------------------------




--------------------------------------- Iteration      1(  32)  ---------------------------------------


    POTLOK:  cpu time      0.4077: real time      0.4077
    SETDIJ:  cpu time      0.8885: real time      0.8885
    TRIAL :  cpu time      0.9680: real time      0.9681
    CORREC:  cpu time      1.8175: real time      1.8176
    CHARGE:  cpu time      0.2443: real time      0.2443
    --------------------------------------------
      LOOP:  cpu time      4.3362: real time      4.3367

 eigenvalue-minimisations  :     0
 total energy-change (2. order) : 0.1650848E+02  (-0.8708696E+02)
 number of electron      88.0000001 magnetization 
 augmentation part       18.8416256 magnetization 

 Free energy of the ion-electron system (eV)
  ---------------------------------------------------
  alpha Z        PSCENC =         9.31836840
  Ewald energy   TEWEN  =      7464.19428679
  -Hartree energ DENC   =    -12382.53967327
  -exchange      EXHF   =         0.00000000
  -V(xc)+E(xc)   XCENC  =       137.26123979
  PAW double counting   =     98387.61262526   -98724.68738560
  entropy T*S    EENTRO =        -0.00000000
  eigenvalues    EBANDS =     -1830.60801703
  atomic energy  EATOM  =      7408.66657912
  ---------------------------------------------------
  free energy    TOTEN  =       469.21795501 eV

  energy without entropy =      469.21795501  energy(sigma->0) =      469.21795501


--------------------------------------------------------------------------------------------------------




--------------------------------------- Iteration      1(  33)  ---------------------------------------


    POTLOK:  cpu time      0.4081: real time      0.4082
    SETDIJ:  cpu time      0.8904: real time      0.8904
    TRIAL :  cpu time      0.9692: real time      0.9693
    CORREC:  cpu time      7.3073: real time      7.3081
    CHARGE:  cpu time      0.2465: real time      0.2465
    --------------------------------------------
      LOOP:  cpu time      9.8281: real time      9.8333

 eigenvalue-minimisations  :     0
 total energy-change (2. order) :-0.1276987E+03  ( 0.9924393E+04)
 number of electron      88.0000002 magnetization 
 augmentation part        8.4290183 magnetization 

 Free energy of the ion-electron system (eV)
  ---------------------------------------------------
  alpha Z        PSCENC =         9.31836840
  Ewald energy   TEWEN  =      7464.19428679
  -Hartree energ DENC   =    -12504.13547533
  -exchange      EXHF   =         0.00000000
  -V(xc)+E(xc)   XCENC  =       147.55366241
  PAW double counting   =     83701.34046242   -84037.28198757
  entropy T*S    EENTRO =        -0.00000000
  eigenvalues    EBANDS =     -1848.13668461
  atomic energy  EATOM  =      7408.66657912
  ---------------------------------------------------
  free energy    TOTEN  =       341.51921165 eV

  energy without entropy =      341.51921165  energy(sigma->0) =      341.51921165


--------------------------------------------------------------------------------------------------------




--------------------------------------- Iteration      1(  34)  ---------------------------------------


    POTLOK:  cpu time      0.4146: real time      0.4146
    SETDIJ:  cpu time      0.8953: real time      0.8953
    TRIAL :  cpu time      0.9683: real time      0.9683
    CORREC:  cpu time      1.8287: real time      1.8287
    CHARGE:  cpu time      0.2436: real time      0.2436
    --------------------------------------------
      LOOP:  cpu time      4.3588: real time      4.3621

 eigenvalue-minimisations  :     0
 total energy-change (2. order) : 0.3527095E+04  (-0.8711902E+04)
 number of electron      88.0000001 magnetization 
 augmentation part        8.1155240 magnetization 

 Free energy of the ion-electron system (eV)
  ---------------------------------------------------
  alpha Z        PSCENC =         9.31836840
  Ewald energy   TEWEN  =      7464.19428679
  -Hartree energ DENC   =     -4367.48693756
  -exchange      EXHF   =         0.00000000
  -V(xc)+E(xc)   XCENC  =       -19.06169946
  PAW double counting   =     24293.95329492   -24534.07813245
  entropy T*S    EENTRO =        -0.00000000
  eigenvalues    EBANDS =     -6386.89108415
  atomic energy  EATOM  =      7408.66657912
  ---------------------------------------------------
  free energy    TOTEN  =      3868.61467562 eV

  energy without entropy =     3868.61467562  energy(sigma->0) =     3868.61467562


--------------------------------------------------------------------------------------------------------




--------------------------------------- Iteration      1(  35)  ---------------------------------------


    POTLOK:  cpu time      0.4119: real time      0.4125
    SETDIJ:  cpu time      0.9004: real time      0.9004
    TRIAL :  cpu time      0.9688: real time      0.9688
    CORREC:  cpu time      1.8281: real time      1.8282
    CHARGE:  cpu time      0.2442: real time      0.2442
    --------------------------------------------
      LOOP:  cpu time      4.3592: real time      4.3647

 eigenvalue-minimisations  :     0
 total energy-change (2. order) : 0.1262119E+04  (-0.1072686E+05)
 number of electron      88.0000000 magnetization 
 augmentation part        3.1948807 magnetization 

 Free energy of the ion-electron system (eV)
  ---------------------------------------------------
  alpha Z        PSCENC =         9.31836840
  Ewald energy   TEWEN  =      7464.19428679
  -Hartree energ DENC   =     -2979.26940405
  -exchange      EXHF   =         0.00000000
  -V(xc)+E(xc)   XCENC  =       -40.40748896
  PAW double counting   =     20552.77642439   -20785.96275283
  entropy T*S    EENTRO =         0.00000000
  eigenvalues    EBANDS =     -6498.58187255
  atomic energy  EATOM  =      7408.66657912
  ---------------------------------------------------
  free energy    TOTEN  =      5130.73414031 eV

  energy without entropy =     5130.73414031  energy(sigma->0) =     5130.73414031


--------------------------------------------------------------------------------------------------------




--------------------------------------- Iteration      1(  36)  ---------------------------------------


    POTLOK:  cpu time      0.4128: real time      0.4128
    SETDIJ:  cpu time      0.8923: real time      0.8923
    TRIAL :  cpu time      0.9689: real time      0.9690
    CORREC:  cpu time      1.8304: real time      1.8305
    CHARGE:  cpu time      0.2455: real time      0.2456
    --------------------------------------------
      LOOP:  cpu time      4.3556: real time      4.3608

 eigenvalue-minimisations  :     0
 total energy-change (2. order) : 0.1903694E+04  (-0.8075989E+04)
 number of electron      88.0000000 magnetization 
 augmentation part        0.2104130 magnetization 

 Free energy of the ion-electron system (eV)
  ---------------------------------------------------
  alpha Z        PSCENC =         9.31836840
  Ewald energy   TEWEN  =      7464.19428679
  -Hartree energ DENC   =     -2125.90483702
  -exchange      EXHF   =         0.00000000
  -V(xc)+E(xc)   XCENC  =       -61.59476044
  PAW double counting   =     11772.72894666   -11985.53700912
  entropy T*S    EENTRO =         0.00000000
  eigenvalues    EBANDS =     -5447.44301779
  atomic energy  EATOM  =      7408.66657912
  ---------------------------------------------------
  free energy    TOTEN  =      7034.42855661 eV

  energy without entropy =     7034.42855661  energy(sigma->0) =     7034.42855661


--------------------------------------------------------------------------------------------------------




--------------------------------------- Iteration      1(  37)  ---------------------------------------


    POTLOK:  cpu time      0.4131: real time      0.4132
    SETDIJ:  cpu time      0.8981: real time      0.8981
    TRIAL :  cpu time      0.9691: real time      0.9698
    CORREC:  cpu time      1.8286: real time      1.8286
    CHARGE:  cpu time      0.2459: real time      0.2459
    --------------------------------------------
      LOOP:  cpu time      4.3663: real time      4.3674

 eigenvalue-minimisations  :     0
 total energy-change (2. order) : 0.3777137E+04  (-0.6400171E+04)
 number of electron      88.0000000 magnetization 
 augmentation part       -0.1528254 magnetization 

 Free energy of the ion-electron system (eV)
[...]


--------------------------------------------------------------------------------------------------------




--------------------------------------- Iteration      1( 198)  ---------------------------------------


    POTLOK:  cpu time      0.2921: real time      0.2921
    SETDIJ:  cpu time      0.8907: real time      0.8907
    TRIAL :  cpu time      0.9679: real time      0.9680
    CORREC:  cpu time      1.6929: real time      1.6936
    CHARGE:  cpu time      0.2373: real time      0.2373
    --------------------------------------------
      LOOP:  cpu time      4.0858: real time      4.0911

 eigenvalue-minimisations  :     0
 total energy-change (2. order) :-0.1836781E-03  (-0.6641512E-03)
 number of electron      88.0000004 magnetization 
 augmentation part       33.0149780 magnetization 

 Free energy of the ion-electron system (eV)
  ---------------------------------------------------
  alpha Z        PSCENC =         9.31836840
  Ewald energy   TEWEN  =      7464.19428679
  -Hartree energ DENC   =    -14555.51925497
  -exchange      EXHF   =         0.00000000
  -V(xc)+E(xc)   XCENC  =       212.22635378
  PAW double counting   =      8926.92706393    -9142.21524618
  entropy T*S    EENTRO =        -0.00000000
  eigenvalues    EBANDS =      -648.56305574
  atomic energy  EATOM  =      7408.66657912
  ---------------------------------------------------
  free energy    TOTEN  =      -324.96490487 eV

  energy without entropy =     -324.96490487  energy(sigma->0) =     -324.96490487


--------------------------------------------------------------------------------------------------------




--------------------------------------- Iteration      1( 199)  ---------------------------------------


    POTLOK:  cpu time      0.2934: real time      0.2935
    SETDIJ:  cpu time      0.8908: real time      0.8909
    TRIAL :  cpu time      0.9704: real time      0.9704
    CORREC:  cpu time      1.6921: real time      1.6922
    CHARGE:  cpu time      0.2398: real time      0.2398
    --------------------------------------------
      LOOP:  cpu time      4.0952: real time      4.0960

 eigenvalue-minimisations  :     0
 total energy-change (2. order) : 0.4901460E-03  (-0.7900873E-03)
 number of electron      88.0000004 magnetization 
 augmentation part       33.0148571 magnetization 

 Free energy of the ion-electron system (eV)
  ---------------------------------------------------
  alpha Z        PSCENC =         9.31836840
  Ewald energy   TEWEN  =      7464.19428679
  -Hartree energ DENC   =    -14555.50266146
  -exchange      EXHF   =         0.00000000
  -V(xc)+E(xc)   XCENC  =       212.22607225
  PAW double counting   =      8926.91698661    -9142.20521542
  entropy T*S    EENTRO =        -0.00000000
  eigenvalues    EBANDS =      -648.57883101
  atomic energy  EATOM  =      7408.66657912
  ---------------------------------------------------
  free energy    TOTEN  =      -324.96441472 eV

  energy without entropy =     -324.96441472  energy(sigma->0) =     -324.96441472


--------------------------------------------------------------------------------------------------------




--------------------------------------- Iteration      1( 200)  ---------------------------------------


    POTLOK:  cpu time      0.2934: real time      0.2934
    SETDIJ:  cpu time      0.8893: real time      0.8894
    TRIAL :  cpu time      0.9708: real time      0.9708
    CORREC:  cpu time      1.6959: real time      1.6960
    EDDIAG:  cpu time      0.2667: real time      0.2667
    CHARGE:  cpu time      0.2377: real time      0.2377
    --------------------------------------------
      LOOP:  cpu time      4.3619: real time      4.3623

 eigenvalue-minimisations  :     0
 total energy-change (2. order) :-0.9339793E-03  (-0.9310269E-03)
 number of electron      88.0000004 magnetization 
 augmentation part       33.0149576 magnetization 

 Free energy of the ion-electron system (eV)
  ---------------------------------------------------
  alpha Z        PSCENC =         9.31836840
  Ewald energy   TEWEN  =      7464.19428679
  -Hartree energ DENC   =    -14555.44203812
  -exchange      EXHF   =         0.00000000
  -V(xc)+E(xc)   XCENC  =       212.22524867
  PAW double counting   =      8926.86866701    -9142.15744846
  entropy T*S    EENTRO =        -0.00000000
  eigenvalues    EBANDS =      -648.63901210
  atomic energy  EATOM  =      7408.66657912
  ---------------------------------------------------
  free energy    TOTEN  =      -324.96534870 eV

  energy without entropy =     -324.96534870  energy(sigma->0) =     -324.96534870


--------------------------------------------------------------------------------------------------------


  average scaling for gradient   0.0612


 average (electrostatic) potential at core
  the test charge radii are     1.2098
  (the norm of the test charge is              1.0000)
       1 -81.4705       2 -81.5624       3 -81.5626       4 -81.8428       5 -81.5616
       6 -81.8921       7 -81.5624       8 -81.8413



 E-fermi :  -4.7294     XC(G=0):  -0.6120     alpha+bet : -0.2375

 Fermi energy:        -4.7294321728

 k-point     1 :       0.0000    0.0000    0.0000
  band No.  band energies     occupation 
      1     -10.5723      2.00000
      2      -9.7612      2.00000
      3      -9.6900      2.00000
      4      -9.1593      2.00000
      5      -9.0428      2.00000
      6      -8.9478      2.00000
      7      -8.7598      2.00000
      8      -8.7251      2.00000
      9      -8.6069      2.00000
     10      -8.4826      2.00000
     11      -8.4628      2.00000
     12      -8.2424      2.00000
     13      -8.1949      2.00000
     14      -8.1543      2.00000
     15      -8.1119      2.00000
     16      -8.0186      2.00000
     17      -7.9305      2.00000
     18      -7.8981      2.00000
     19      -7.5512      2.00000
     20      -7.3710      2.00000
     21      -7.2934      2.00000
     22      -7.1707      2.00000
     23      -7.1097      2.00000
     24      -7.0295      2.00000
     25      -6.9430      2.00000
     26      -6.8738      2.00000
     27      -6.8431      2.00000
     28      -6.6695      2.00000
     29      -6.6631      2.00000
     30      -6.4960      2.00000
     31      -6.4569      2.00000
     32      -6.4229      2.00000
     33      -6.3524      2.00000
     34      -6.3118      2.00000
     35      -6.2030      2.00000
     36      -6.1394      2.00000
     37      -5.9872      2.00000
     38      -5.9741      2.00000
     39      -5.9667      2.00000
     40      -5.9073      2.00000
     41      -5.8228      2.00000
     42      -5.6787      2.00000
     43      -5.2845      2.00000
     44      -4.9646      2.00000
     45      -3.3823      0.00000
     46      -3.1403      0.00000
     47      -3.0619      0.00000
     48      -2.8535      0.00000
     49      -1.6029      0.00000
     50      -1.3907      0.00000
     51      -0.6967      0.00000
     52      -0.4597      0.00000
     53      -0.2553      0.00000
     54      -0.0706      0.00000
     55       0.0303      0.00000
     56       0.0526      0.00000
     57       0.1941      0.00000
     58       0.2247      0.00000
     59       0.3544      0.00000
     60       0.3794      0.00000
     61       0.4471      0.00000
     62       0.5490      0.00000
     63       0.6176      0.00000
     64       0.6329      0.00000
     65       0.6801      0.00000
     66       0.7202      0.00000
     67       0.7292      0.00000
     68       0.7638      0.00000
     69       0.7712      0.00000
     70       0.7910      0.00000
     71       0.8022      0.00000
     72       0.8284      0.00000
     73       0.8857      0.00000
     74       0.9169      0.00000
     75       0.9260      0.00000
     76       1.0507      0.00000
     77       1.1149      0.00000
     78       1.1716      0.00000
     79       1.2184      0.00000
     80       1.2411      0.00000
     81       1.2443      0.00000
     82       1.2820      0.00000
     83       1.3073      0.00000
     84       1.3250      0.00000
     85       1.5182      0.00000
     86       1.6271      0.00000
     87       1.6394      0.00000
     88       1.6767      0.00000
     89       1.8094      0.00000
     90       1.8330      0.00000
     91       1.8644      0.00000
     92       1.8716      0.00000
     93       1.9440      0.00000
     94       1.9609      0.00000
     95       1.9751      0.00000
     96       2.2410      0.00000


--------------------------------------------------------------------------------------------------------


 soft charge-density along one line, spin component           1
         0         1         2         3         4         5         6         7         8         9
 total charge-density along one line

 pseudopotential strength for first ion, spin component:           1
 -9.318   0.000   0.000   0.001   0.002  -9.443   0.000   0.000
  0.000  -9.318  -0.001   0.002   0.000   0.000  -9.444  -0.001
  0.000  -0.001  -9.321  -0.004   0.001   0.000  -0.001  -9.446
  0.001   0.002  -0.004  -9.311   0.001   0.001   0.002  -0.004
  0.002   0.000   0.001   0.001  -9.315   0.002   0.000   0.001
 -9.443   0.000   0.000   0.001   0.002  -9.553   0.000   0.000
  0.000  -9.444  -0.001   0.002   0.000   0.000  -9.554  -0.001
  0.000  -0.001  -9.446  -0.004   0.001   0.000  -0.001  -9.555
  0.001   0.002  -0.004  -9.436   0.001   0.001   0.002  -0.004
  0.002   0.000   0.001   0.001  -9.440   0.002   0.000   0.000
  0.002  -0.001  -0.003  -0.002   0.005   0.002  -0.001  -0.003
  0.003  -0.001  -0.005  -0.003   0.007   0.003  -0.001  -0.005
  0.005   0.000   0.011  -0.000   0.021   0.005   0.000   0.011
 -0.000  -0.020   0.000   0.004   0.000  -0.000  -0.021   0.000
 -0.018  -0.000  -0.002   0.001   0.003  -0.019  -0.000  -0.002
  0.004   0.000   0.008  -0.000   0.016   0.004   0.000   0.008
 -0.000  -0.014   0.000   0.003   0.000  -0.000  -0.014   0.000
 -0.012  -0.000  -0.002   0.000   0.002  -0.013  -0.000  -0.002
 total augmentation occupancy for first ion, spin component:           1
  4.826  -0.114   0.050  -0.020  -0.406  -2.417   0.099  -0.049   0.001   0.414  -0.037  -0.013  -0.024   0.029  -0.379   0.008
 -0.114   4.420  -0.024  -0.192   0.035   0.099  -2.079   0.040   0.172  -0.038   0.053  -0.020   0.006  -0.262   0.031  -0.000
  0.050  -0.024   3.613   0.008   0.098  -0.049   0.040  -1.225   0.053  -0.100   0.457  -0.189   0.074   0.007  -0.018   0.009
 -0.020  -0.192   0.008   3.596  -0.041   0.001   0.172   0.053  -1.344   0.001   0.178  -0.060  -0.001   0.058   0.001  -0.001
 -0.406   0.035   0.098  -0.041   4.152   0.414  -0.038  -0.100   0.001  -1.727  -0.083  -0.026   0.160  -0.011   0.144   0.020
 -2.417   0.099  -0.049   0.001   0.414   1.992  -0.088   0.049   0.014  -0.420  -0.001   0.028   0.017  -0.023   0.389  -0.002
  0.099  -2.079   0.040   0.172  -0.038  -0.088   1.706  -0.051  -0.157   0.040  -0.042   0.017  -0.006   0.298  -0.025   0.001
 -0.049   0.040  -1.225   0.053  -0.100   0.049  -0.051   0.816  -0.101   0.104  -0.388   0.172  -0.095  -0.008   0.022   0.005
  0.001   0.172   0.053  -1.344   0.001   0.014  -0.157  -0.101   1.041   0.030  -0.135   0.046  -0.002  -0.066  -0.002   0.001
  0.414  -0.038  -0.100   0.001  -1.727  -0.420   0.040   0.104   0.030   1.292   0.000   0.058  -0.180   0.008  -0.144   0.006
 -0.037   0.053   0.457   0.178  -0.083  -0.001  -0.042  -0.388  -0.135   0.000   5.329  -2.004   0.412  -0.008  -0.092  -0.050
 -0.013  -0.020  -0.189  -0.060  -0.026   0.028   0.017   0.172   0.046   0.058  -2.004   0.766  -0.175   0.003   0.039   0.020
 -0.024   0.006   0.074  -0.001   0.160   0.017  -0.006  -0.095  -0.002  -0.180   0.412  -0.175   0.076  -0.002   0.006  -0.007
  0.029  -0.262   0.007   0.058  -0.011  -0.023   0.298  -0.008  -0.066   0.008  -0.008   0.003  -0.002   0.068  -0.007   0.000
 -0.379   0.031  -0.018   0.001   0.144   0.389  -0.025   0.022  -0.002  -0.144  -0.092   0.039   0.006  -0.007   0.102   0.000
  0.008  -0.000   0.009  -0.001   0.020  -0.002   0.001   0.005   0.001   0.006  -0.050   0.020  -0.007   0.000   0.000   0.001
 -0.002  -0.014   0.000   0.003   0.001   0.001  -0.013   0.000   0.003  -0.001   0.001  -0.000   0.000  -0.005   0.000  -0.000
 -0.006  -0.002  -0.002   0.001  -0.002  -0.019   0.001  -0.001  -0.000   0.008   0.011  -0.005   0.000   0.000  -0.006  -0.000


------------------------ aborting loop EDIFF was not reached (unconverged)  ----------------------------


 -----------------------------------------------------------------------------
|                                                                             |
|           W    W    AA    RRRRR   N    N  II  N    N   GGGG   !!!           |
|           W    W   A  A   R    R  NN   N  II  NN   N  G    G  !!!           |
|           W    W  A    A  R    R  N N  N  II  N N  N  G       !!!           |
|           W WW W  AAAAAA  RRRRR   N  N N  II  N  N N  G  GGG   !            |
|           WW  WW  A    A  R   R   N   NN  II  N   NN  G    G                |
|           W    W  A    A  R    R  N    N  II  N    N   GGGG   !!!           |
|                                                                             |
|     The electronic self-consistency was not achieved in the given           |
|     number of steps (NELM). The forces and other quantities evaluated       |
|     might not be reliable so examine the results carefully. If you find     |
|     spurious results, we suggest increasing NELM, if you were close to      |
|     convergence or switching to a different ALGO or adjusting the           |
|     density mixing parameters otherwise.                                    |
|                                                                             |
 -----------------------------------------------------------------------------

    FORLOC:  cpu time      0.0034: real time      0.0034
    FORNL :  cpu time      0.1063: real time      0.1080
    STRESS:  cpu time      3.3188: real time      3.3206
    FORCOR:  cpu time      0.2052: real time      0.2053
    OFIELD:  cpu time      0.0002: real time      0.0002

  FORCE on cell =-STRESS in cart. coord.  units (eV):
  Direction    XX          YY          ZZ          XY          YZ          ZX
  --------------------------------------------------------------------------------------
  Alpha Z     9.31837     9.31837     9.31837
  Ewald    1585.53740  2081.75924  3796.89381   -98.33452   119.10965   407.15981
  Hartree  4141.41795  4522.18773  5891.90353   -73.67581    92.20036   315.11760
  E(xc)    -424.73283  -424.52405  -423.85713    -0.04525     0.05260     0.17654
  Local   -7089.37194 -7955.88269-11012.63525   169.71968  -209.02629  -714.43934
  n-local    -8.63030   -11.50248   -22.57971     0.61642    -0.83062    -2.82884
  augment   545.50379   543.59135   539.60325     0.42516    -0.34316    -1.20347
  Kinetic  1242.21311  1237.35952  1225.39427     1.06734    -0.98515    -3.42475
  Fock        0.00000     0.00000     0.00000     0.00000     0.00000     0.00000
  -------------------------------------------------------------------------------------
  Total       1.25555     2.30699     4.04114    -0.22698     0.17740     0.55755
  in kB       0.25145     0.46203     0.80933    -0.04546     0.03553     0.11166
  external pressure =        0.51 kB  Pullay stress =        0.00 kB


 VOLUME and BASIS-vectors are now :
 -----------------------------------------------------------------------------
  energy-cutoff  :      520.00
  volume of cell :     8000.00
      direct lattice vectors                 reciprocal lattice vectors
    20.000000000  0.000000000  0.000000000     0.050000000  0.000000000  0.000000000
     0.000000000 20.000000000  0.000000000     0.000000000  0.050000000  0.000000000
     0.000000000  0.000000000 20.000000000     0.000000000  0.000000000  0.050000000

  length of vectors
    20.000000000 20.000000000 20.000000000     0.050000000  0.050000000  0.050000000


 FORCES acting on ions:
    Electron-Ion                     Ewald-Force                    Non-Local-Force
 -----------------------------------------------------------------------------------------------
   -.188E+03 0.841E+03 -.161E+02   0.188E+03 -.839E+03 0.161E+02   0.706E+00 -.318E+01 0.557E-01
   0.680E+03 0.346E+03 0.333E+03   -.679E+03 -.346E+03 -.332E+03   -.907E+00 -.397E+00 -.218E+01
   0.502E+03 0.288E+03 -.598E+03   -.502E+03 -.289E+03 0.596E+03   -.420E-02 -.100E+00 0.238E+01
   -.397E+02 -.462E+03 -.685E+03   0.393E+02 0.460E+03 0.681E+03   0.414E+00 0.249E+01 0.478E+01
   -.760E+03 0.117E+02 -.340E+03   0.759E+03 -.118E+02 0.338E+03   0.964E+00 0.999E-01 0.218E+01
   0.161E+03 -.719E+03 0.138E+02   -.161E+03 0.719E+03 -.138E+02   0.354E-01 -.203E+00 0.932E-02
   -.581E+03 0.694E+02 0.591E+03   0.582E+03 -.693E+02 -.589E+03   0.693E-01 -.164E+00 -.237E+01
   0.227E+03 -.376E+03 0.701E+03   -.226E+03 0.375E+03 -.697E+03   -.142E+01 0.192E+01 -.486E+01
 -----------------------------------------------------------------------------------------------
   0.117E+00 -.484E+00 0.777E-02   0.000E+00 0.000E+00 0.171E-12   -.142E+00 0.465E+00 -.465E-02


 POSITION                                       TOTAL-FORCE (eV/Angst)
 -----------------------------------------------------------------------------------
     10.39546      8.14262     10.06980         0.116263     -0.502740      0.002102
      8.27478      9.54089      9.01878        -0.231132     -0.140479     -0.248467
      8.77870      9.70357     11.65101        -0.100823     -0.092743      0.327003
     10.08825     11.89653     12.58993         0.019163      0.339488      0.525385
     11.71065     10.34663     11.05087         0.271364     -0.023068      0.247114
      9.56156     11.87172      9.99732        -0.044888      0.168358     -0.000460
     11.20567     10.18422      8.41848         0.140199     -0.040108     -0.323430
      9.09641     11.57678      7.40929        -0.170146      0.291293     -0.529247
 -----------------------------------------------------------------------------------
    total drift:                               -0.024702     -0.019187      0.003119


--------------------------------------------------------------------------------------------------------



  FREE ENERGIE OF THE ION-ELECTRON SYSTEM (eV)
  ---------------------------------------------------
  free  energy   TOTEN  =      -324.96534870 eV

  energy  without entropy=     -324.96534870  energy(sigma->0) =     -324.96534870



--------------------------------------------------------------------------------------------------------


    POTLOK:  cpu time      1.1761: real time      1.1765


--------------------------------------------------------------------------------------------------------


     LOOP+:  cpu time    872.1225: real time    872.6273
    4ORBIT:  cpu time      0.0000: real time      0.0000

 total amount of memory used by VASP MPI-rank0   130450. kBytes
=======================================================================

   base      :      30000. kBytes
   nonlr-proj:       2759. kBytes
   fftplans  :      28354. kBytes
   grid      :      66714. kBytes
   one-center:         31. kBytes
   wavefun   :       2592. kBytes

  
  
 General timing and accounting informations for this job:
 ========================================================
  
                  Total CPU time used (sec):      893.340
                            User time (sec):      891.733
                          System time (sec):        1.607
                         Elapsed time (sec):      895.900
  
                   Maximum memory used (kb):      408836.
                   Average memory used (kb):          N/A
  
                          Minor page faults:        29597
                          Major page faults:            0
                 Voluntary context switches:        12055
