 **********************************************************************
                          MRCC program system
 **********************************************************************
 
                              Written by
     Mihaly Kallay, Peter R. Nagy, David Mester, Laszlo Gyevi-Nagy,
        Jozsef Csoka, P. Bernat Szabo, Zoltan Rolik, Gyula Samu,
     Jozsef Csontos, Bence Hegely, Adam Ganyecz, Istvan Ladjanszki,
       Lorant Szegedy, Bence Ladoczki, Klara Petrov, Mate Farkas,
                    Pal D. Mezei, and Reka A. Horvath
 
        Department of Physical Chemistry and Materials Science
            Budapest University of Technology and Economics
                  Budapest P.O.Box 91, H-1521 Hungary
 
                              www.mrcc.hu
 
                      Release date: March 18, 2022

 ************************ 2022-08-18 07:41:17 *************************
 Executing minp...

 Reading input from MINP...
 
 Input file:
 
calc=LNO-CCSD(T)
scftype=rhf
verbosity=3
mem=190GB
symm=off
unit=angs
scfiguess=small
scfmaxit=1000
scfalg=locfit1


lcorthr=tight
ccmaxit=400
usedisk=0
ccsdalg=dfdirect
ccsdthreads=4
ccsdmkl=thr
ptthreads=4

charge=0
core=8

basis=special
aug-cc-pVDZ-PP
aug-cc-pVDZ-PP
aug-cc-pVDZ
cc-pVDZ
cc-pVDZ
cc-pVDZ
cc-pVDZ
cc-pVDZ
aug-cc-pVDZ
aug-cc-pVDZ
aug-cc-pVDZ
aug-cc-pVDZ
aug-cc-pVDZ
aug-cc-pVDZ
aug-cc-pVDZ
aug-cc-pVDZ
cc-pVDZ
cc-pVDZ
cc-pVDZ
cc-pVDZ
aug-cc-pVDZ
aug-cc-pVDZ
aug-cc-pVDZ
aug-cc-pVDZ
cc-pVDZ
cc-pVDZ
cc-pVDZ
cc-pVDZ
cc-pVDZ
cc-pVDZ
cc-pVDZ
cc-pVDZ
aug-cc-pVDZ
aug-cc-pVDZ
aug-cc-pVDZ
aug-cc-pVDZ
aug-cc-pVDZ
aug-cc-pVDZ
aug-cc-pVDZ
aug-cc-pVDZ
aug-cc-pVDZ
aug-cc-pVDZ
aug-cc-pVDZ
cc-pVDZ
cc-pVDZ
cc-pVDZ
aug-cc-pVDZ
aug-cc-pVDZ
aug-cc-pVDZ
aug-cc-pVDZ
aug-cc-pVDZ
aug-cc-pVDZ
aug-cc-pVDZ
aug-cc-pVDZ
aug-cc-pVDZ
aug-cc-pVDZ
aug-cc-pVDZ
aug-cc-pVDZ

basis_sm=special
def2-SVP
def2-SVP
def2-SVP
def2-SVP
def2-SVP
def2-SVP
def2-SVP
def2-SVP
def2-SVP
def2-SVP
def2-SVP
def2-SVP
def2-SVP
def2-SVP
def2-SVP
def2-SVP
def2-SVP
def2-SVP
def2-SVP
def2-SVP
def2-SVP
def2-SVP
def2-SVP
def2-SVP
def2-SVP
def2-SVP
def2-SVP
def2-SVP
def2-SVP
def2-SVP
def2-SVP
def2-SVP
def2-SVP
def2-SVP
def2-SVP
def2-SVP
def2-SVP
def2-SVP
def2-SVP
def2-SVP
def2-SVP
def2-SVP
def2-SVP
def2-SVP
def2-SVP
def2-SVP
def2-SVP
def2-SVP
def2-SVP
def2-SVP
def2-SVP
def2-SVP
def2-SVP
def2-SVP
def2-SVP
def2-SVP
def2-SVP
def2-SVP

dfbasis_scf=special
def2-QZVPP-RI-JK
def2-QZVPP-RI-JK
def2-QZVPP-RI-JK
def2-QZVPP-RI-JK
def2-QZVPP-RI-JK
def2-QZVPP-RI-JK
def2-QZVPP-RI-JK
def2-QZVPP-RI-JK
def2-QZVPP-RI-JK
def2-QZVPP-RI-JK
def2-QZVPP-RI-JK
def2-QZVPP-RI-JK
def2-QZVPP-RI-JK
def2-QZVPP-RI-JK
def2-QZVPP-RI-JK
def2-QZVPP-RI-JK
def2-QZVPP-RI-JK
def2-QZVPP-RI-JK
def2-QZVPP-RI-JK
def2-QZVPP-RI-JK
def2-QZVPP-RI-JK
def2-QZVPP-RI-JK
def2-QZVPP-RI-JK
def2-QZVPP-RI-JK
def2-QZVPP-RI-JK
def2-QZVPP-RI-JK
def2-QZVPP-RI-JK
def2-QZVPP-RI-JK
def2-QZVPP-RI-JK
def2-QZVPP-RI-JK
def2-QZVPP-RI-JK
def2-QZVPP-RI-JK
def2-QZVPP-RI-JK
def2-QZVPP-RI-JK
def2-QZVPP-RI-JK
def2-QZVPP-RI-JK
def2-QZVPP-RI-JK
def2-QZVPP-RI-JK
def2-QZVPP-RI-JK
def2-QZVPP-RI-JK
def2-QZVPP-RI-JK
def2-QZVPP-RI-JK
def2-QZVPP-RI-JK
def2-QZVPP-RI-JK
def2-QZVPP-RI-JK
def2-QZVPP-RI-JK
def2-QZVPP-RI-JK
def2-QZVPP-RI-JK
def2-QZVPP-RI-JK
def2-QZVPP-RI-JK
def2-QZVPP-RI-JK
def2-QZVPP-RI-JK
def2-QZVPP-RI-JK
def2-QZVPP-RI-JK
def2-QZVPP-RI-JK
def2-QZVPP-RI-JK
def2-QZVPP-RI-JK
def2-QZVPP-RI-JK

dfbasis_cor=special
aug-cc-pVDZ-PP-RI
aug-cc-pVDZ-PP-RI
aug-cc-pVDZ-RI
cc-pVDZ-RI
cc-pVDZ-RI
cc-pVDZ-RI
cc-pVDZ-RI
cc-pVDZ-RI
aug-cc-pVDZ-RI
aug-cc-pVDZ-RI
aug-cc-pVDZ-RI
aug-cc-pVDZ-RI
aug-cc-pVDZ-RI
aug-cc-pVDZ-RI
aug-cc-pVDZ-RI
aug-cc-pVDZ-RI
cc-pVDZ-RI
cc-pVDZ-RI
cc-pVDZ-RI
cc-pVDZ-RI
aug-cc-pVDZ-RI
aug-cc-pVDZ-RI
aug-cc-pVDZ-RI
aug-cc-pVDZ-RI
cc-pVDZ-RI
cc-pVDZ-RI
cc-pVDZ-RI
cc-pVDZ-RI
cc-pVDZ-RI
cc-pVDZ-RI
cc-pVDZ-RI
cc-pVDZ-RI
aug-cc-pVDZ-RI
aug-cc-pVDZ-RI
aug-cc-pVDZ-RI
aug-cc-pVDZ-RI
aug-cc-pVDZ-RI
aug-cc-pVDZ-RI
aug-cc-pVDZ-RI
aug-cc-pVDZ-RI
aug-cc-pVDZ-RI
aug-cc-pVDZ-RI
aug-cc-pVDZ-RI
cc-pVDZ-RI
cc-pVDZ-RI
cc-pVDZ-RI
aug-cc-pVDZ-RI
aug-cc-pVDZ-RI
aug-cc-pVDZ-RI
aug-cc-pVDZ-RI
aug-cc-pVDZ-RI
aug-cc-pVDZ-RI
aug-cc-pVDZ-RI
aug-cc-pVDZ-RI
aug-cc-pVDZ-RI
aug-cc-pVDZ-RI
aug-cc-pVDZ-RI
aug-cc-pVDZ-RI

ecp=special
MCDHF-ECP-60
MCDHF-ECP-60
none
none
none
none
none
none
none
none
none
none
none
none
none
none
none
none
none
none
none
none
none
none
none
none
none
none
none
none
none
none
none
none
none
none
none
none
none
none
none
none
none
none
none
none
none
none
none
none
none
none
none
none
none
none
none
none

unit=angs
geom=xyz
58
Au2 Mg20 O36 ECP52
Au    1.95071426060    0.16317108844    2.81039763256
Au    0.16317045375    1.95071489529    2.81039763256
O     0.00000000000    0.00000000000    0.00000000000
Mg   -2.11388582115    0.00000000000    0.00000000000
Mg    0.00000000000    2.11388582115    0.00000000000
Mg    2.11388582115    0.00000000000    0.00000000000
Mg    0.00000000000   -2.11388582115    0.00000000000
Mg    0.00000000000    0.00000000000   -2.11388582115
O    -2.11388582115    2.11388582115    0.00000000000
O     2.11388582115    2.11388582115    0.00000000000
O     2.11388582115   -2.11388582115    0.00000000000
O    -2.11388582115   -2.11388582115    0.00000000000
O    -2.11388582115    0.00000000000   -2.11388582115
O     0.00000000000    2.11388582115   -2.11388582115
O     2.11388582115    0.00000000000   -2.11388582115
O     0.00000000000   -2.11388582115   -2.11388582115
Mg   -2.11388582115    2.11388582115   -2.11388582115
Mg    2.11388582115    2.11388582115   -2.11388582115
Mg    2.11388582115   -2.11388582115   -2.11388582115
Mg   -2.11388582115   -2.11388582115   -2.11388582115
O    -4.22777164231    0.00000000000    0.00000000000
O     0.00000000000    4.22777164231    0.00000000000
O     4.22777164231    0.00000000000    0.00000000000
O     0.00000000000   -4.22777164231    0.00000000000
Mg   -4.22777164231    2.11388582115    0.00000000000
Mg   -2.11388582115    4.22777164231    0.00000000000
Mg    2.11388582115    4.22777164231    0.00000000000
Mg    4.22777164231    2.11388582115    0.00000000000
Mg    4.22777164231   -2.11388582115    0.00000000000
Mg    2.11388582115   -4.22777164231    0.00000000000
Mg    0.00000000000    4.22777164231   -2.11388582115
Mg    4.22777164231    0.00000000000   -2.11388582115
O    -4.22777164231    2.11388582115   -2.11388582115
O    -2.11388582115    4.22777164231   -2.11388582115
O     2.11388582115    4.22777164231   -2.11388582115
O     4.22777164231    2.11388582115   -2.11388582115
O     4.22777164231   -2.11388582115   -2.11388582115
O     2.11388582115   -4.22777164231   -2.11388582115
O    -2.11388582115   -4.22777164231   -2.11388582115
O    -4.22777164231   -2.11388582115   -2.11388582115
O    -4.22777164231    4.22777164231    0.00000000000
O     4.22777164231    4.22777164231    0.00000000000
O     4.22777164231   -4.22777164231    0.00000000000
Mg    0.00000000000    6.34165746346    0.00000000000
Mg    6.34165746346    0.00000000000    0.00000000000
Mg    4.22777164231    4.22777164231   -2.11388582115
O    -6.34165746346    2.11388582115    0.00000000000
O    -2.11388582115    6.34165746346    0.00000000000
O     2.11388582115    6.34165746346    0.00000000000
O     6.34165746346    2.11388582115    0.00000000000
O     6.34165746346   -2.11388582115    0.00000000000
O     2.11388582115   -6.34165746346    0.00000000000
O     0.00000000000    6.34165746346   -2.11388582115
O     6.34165746346    0.00000000000   -2.11388582115
O     4.22777164231    6.34165746346   -2.11388582115
O     6.34165746346    4.22777164231   -2.11388582115
O     0.00000000000    8.45554328461    0.00000000000
O     8.45554328461    0.00000000000    0.00000000000

ghost=serialno
3-58

 
 
 Checking keyword combinations...
 
 Keywords:
 
 active=none
 agrid=ld0006-ld0590
 agrid_pssp=ld0006-ld0194
 agrid_pssp_sm=ld0006-ld0074
 basis=special
 basis_sm=special
 basopt=off
 bfbasis=none
 bfgsmem=10
 bfgstol=1.0d-3
 bpcompo=0.985
 bpcompv=0.98
 bpdfo=0.985
 bpocc=0.99995d0
 bppdo=0.999d0
 bppdv=0.98
 bpedo=0.99995d0
 bpedv=0.995d0
 calc=ccsd(t)
 ccmaxit=400
 ccprog=ccsd
 ccsdalg=dfdirect
 ccsdmkl=thr
 ccsdrest=off
 ccsdthreads=4
 cctol=5
 charge=0
 cialg=direct
 ciguess=off
 cmpgrp=auto
 comprest=off
 core=8
 corembed=off
 csapprox=off
 cvs=off
 dboc=off
 delocsomofact=
 dendec=cholesky
 dens=0
 dfalg=lineq
 dfbasis_cab=none
 dfbasis_cor=special
 dfbasis_scf=special
 dfbasis_scf_sm=special
 dfintran=drpa
 dft=off
 dhexc=adc(2)
 diag=david
 docc=
 domrad=10.d0
 drpaalg=auto
 dual=off
 dual_df=off
 ecp=special
 edisp=off
 edisp_embed=off
 embed=off
 etemp=300
 epert=none
 eps=
 espcharge=off
 excrad=1.0
 excrad_fin=0.100000000D-02
 fitting=coulomb
 fmm=off
 fmmord=8
 freq=off
 gamma=1.d0
 gauss=spher
 geom=xyz
 gopt=off
 ghost=serialno
 gtol=7
 grdens=off
 gridbatch_cos=2000
 grtol=10
 guido_ct=off
 hamilton=dc
 iface=none
 intalg=auto
 itol=10
 laptol=1.d-3
 lccoporder=lccfirst
 lcorthr=tight
 lccrest=off
 lmp2dens=on
 lnoepso=3e-6
 lnoepsv=3e-7
 boysalg=jacobi
 localcc=2021
 localcorrsymm=off
 locintrf=direct
 mact=
 maxact=off
 maxdim=100
 maxex=0
 maxmicroit=100
 mcscfiguess=hf
 mem=190gb
 mmprog=
 molden=on
 mpitasks=1
 mulmet=3
 mult=
 nacto=0
 nactv=0
 naf_amp=1.d-2
 naf_cor=1e-2
 naf_scf=off
 nafalg=albe
 naftyp=jpq
 nchol=auto
 ndeps=1e-3
 nstate=1
 nsing=0
 nto=off
 ntrip=0
 occ=
 occri=off
 oniom=off
 oniom_eechg=off
 oniom_pcm=off
 oniom_qcorr=off
 optalg=
 optmaxit=50
 optetol=1e-6
 optex=0
 optgtol=1e-4
 optstol=1e-3
 orblocc=off
 orbloce=off
 orbloco=boys
 orblocv=pao
 orblocguess=cholesky
 osveps=-1.d0
 ovirt=off
 ovltol=1e-7
 ovosnorb=80.0
 pcm=off
 popul=off
 pressure=100000
 pssp=off
 ptfreq=0.0
 ptthreads=4
 qro=off
 qscf=off
 qmmm=off
 redcost_exc=off
 redcost_tddft=0.985d0
 refdet=none
 rest=0
 rgrid=log3
 rism=off
 rohfcore=standard
 rohftype=semicanonical
 scfalg=locfit1
 scf_conv=difficult
 scfdamp=0.0d0
 scfdamp_mode=off
 scfdamp_end=1000
 scfdamp_dampstep=0.d0
 scfdamp_dtol=0.0d0
 scfdamp_maxfact=0.0d0
 scfdamp_minfact=0.0d0
 scfdiis=on
 scfdiis_dtol=0.0d0
 scfdiis_end=1000
 scfdiis_start=2
 scfdiis_step=1
 scfdiis_watch=off
 scfdiis_wrange=10
 scfdiis_wlimit=5
 scfdiis_delmax=2
 scfdtol=7
 scfext=10
 scfguessdens=
 scfiguess=small
 scfloc=pm
 scflshift=0.20
 scflshift_end=8
 scflshift_dtol=0.0
 scflshift_gaptol=0.20
 scfmaxit=1000
 scftype=rhf
 scftol=6
 scspe=1.d0
 scsph=1.d0
 scsps=1.2d0
 scsps_t=1.2d0
 scspt=0.33333333333333
 scspt_t=0.33333333333333
 scspv=1.d0
 spairtol=-1.d0
 sqmprog=
 subminp=top
 symm=0
 talg=lapl
 temp=298.15
 test=off
 theodore=off
 tlmo=0.999
 tpao=0.94
 tprint=off
 uncontract=off
 unit=angs
 usedisk=0
 verbosity=3
 wpairtol=3.d-6
 
 Calculating integrals for small-basis SCF...

 ************************ 2022-08-18 07:41:20 *************************
 Executing integ...

 Allocation of 190.0 Gbytes of memory...
 
 
 Number of atoms:                 58
 Charge:                           0
 Number of electrons:             38
 Number of core electrons:        16
 Spin multiplicity:                1
 
                 Cartesian coordinates [bohr]      Atomic mass [AMU]  Z
   1  Au    3.68631570    0.30834867    5.31088183   196.966543      79
   2  Au    0.30834747    3.68631690    5.31088183   196.966543      79
   3  O     0.00000000    0.00000000    0.00000000     0.000000       0
   4  Mg   -3.99466526    0.00000000    0.00000000     0.000000       0
   5  Mg    0.00000000    3.99466526    0.00000000     0.000000       0
   6  Mg    3.99466526    0.00000000    0.00000000     0.000000       0
   7  Mg    0.00000000   -3.99466526    0.00000000     0.000000       0
   8  Mg    0.00000000    0.00000000   -3.99466526     0.000000       0
   9  O    -3.99466526    3.99466526    0.00000000     0.000000       0
  10  O     3.99466526    3.99466526    0.00000000     0.000000       0
  11  O     3.99466526   -3.99466526    0.00000000     0.000000       0
  12  O    -3.99466526   -3.99466526    0.00000000     0.000000       0
  13  O    -3.99466526    0.00000000   -3.99466526     0.000000       0
  14  O     0.00000000    3.99466526   -3.99466526     0.000000       0
  15  O     3.99466526    0.00000000   -3.99466526     0.000000       0
  16  O     0.00000000   -3.99466526   -3.99466526     0.000000       0
  17  Mg   -3.99466526    3.99466526   -3.99466526     0.000000       0
  18  Mg    3.99466526    3.99466526   -3.99466526     0.000000       0
  19  Mg    3.99466526   -3.99466526   -3.99466526     0.000000       0
  20  Mg   -3.99466526   -3.99466526   -3.99466526     0.000000       0
  21  O    -7.98933052    0.00000000    0.00000000     0.000000       0
  22  O     0.00000000    7.98933052    0.00000000     0.000000       0
  23  O     7.98933052    0.00000000    0.00000000     0.000000       0
  24  O     0.00000000   -7.98933052    0.00000000     0.000000       0
  25  Mg   -7.98933052    3.99466526    0.00000000     0.000000       0
  26  Mg   -3.99466526    7.98933052    0.00000000     0.000000       0
  27  Mg    3.99466526    7.98933052    0.00000000     0.000000       0
  28  Mg    7.98933052    3.99466526    0.00000000     0.000000       0
  29  Mg    7.98933052   -3.99466526    0.00000000     0.000000       0
  30  Mg    3.99466526   -7.98933052    0.00000000     0.000000       0
  31  Mg    0.00000000    7.98933052   -3.99466526     0.000000       0
  32  Mg    7.98933052    0.00000000   -3.99466526     0.000000       0
  33  O    -7.98933052    3.99466526   -3.99466526     0.000000       0
  34  O    -3.99466526    7.98933052   -3.99466526     0.000000       0
  35  O     3.99466526    7.98933052   -3.99466526     0.000000       0
  36  O     7.98933052    3.99466526   -3.99466526     0.000000       0
  37  O     7.98933052   -3.99466526   -3.99466526     0.000000       0
  38  O     3.99466526   -7.98933052   -3.99466526     0.000000       0
  39  O    -3.99466526   -7.98933052   -3.99466526     0.000000       0
  40  O    -7.98933052   -3.99466526   -3.99466526     0.000000       0
  41  O    -7.98933052    7.98933052    0.00000000     0.000000       0
  42  O     7.98933052    7.98933052    0.00000000     0.000000       0
  43  O     7.98933052   -7.98933052    0.00000000     0.000000       0
  44  Mg    0.00000000   11.98399579    0.00000000     0.000000       0
  45  Mg   11.98399579    0.00000000    0.00000000     0.000000       0
  46  Mg    7.98933052    7.98933052   -3.99466526     0.000000       0
  47  O   -11.98399579    3.99466526    0.00000000     0.000000       0
  48  O    -3.99466526   11.98399579    0.00000000     0.000000       0
  49  O     3.99466526   11.98399579    0.00000000     0.000000       0
  50  O    11.98399579    3.99466526    0.00000000     0.000000       0
  51  O    11.98399579   -3.99466526    0.00000000     0.000000       0
  52  O     3.99466526  -11.98399579    0.00000000     0.000000       0
  53  O     0.00000000   11.98399579   -3.99466526     0.000000       0
  54  O    11.98399579    0.00000000   -3.99466526     0.000000       0
  55  O     7.98933052   11.98399579   -3.99466526     0.000000       0
  56  O    11.98399579    7.98933052   -3.99466526     0.000000       0
  57  O     0.00000000   15.97866105    0.00000000     0.000000       0
  58  O    15.97866105    0.00000000    0.00000000     0.000000       0
 
 This molecule is an asymmetric top.
 
 Point group: C1  
 Computational point group: C1  
 
 Cartesian coordinates in standard orientation [bohr]
   1  Au   -2.38858371    1.48043325    0.00000046
   2  Au    2.38858478    1.48043211    0.00000046
   3  O    -0.00000159   -3.83044802   -2.82465592
   4  Mg    2.82465331   -3.83044757   -5.64931082
   5  Mg    2.82465331   -3.83044982   -0.00000103
   6  Mg   -2.82465648   -3.83044847   -0.00000103
   7  Mg   -2.82465648   -3.83044622   -5.64931082
   8  Mg   -0.00000254   -7.82511328   -2.82465751
   9  O     5.64930820   -3.83044938   -2.82465592
  10  O    -0.00000159   -3.83045027    2.82465387
  11  O    -5.64931138   -3.83044667   -2.82465592
  12  O    -0.00000159   -3.83044577   -8.47396571
  13  O     2.82465235   -7.82511284   -5.64931241
  14  O     2.82465235   -7.82511509   -0.00000262
  15  O    -2.82465744   -7.82511373   -0.00000262
  16  O    -2.82465744   -7.82511148   -5.64931241
  17  Mg    5.64930725   -7.82511464   -2.82465751
  18  Mg   -0.00000254   -7.82511553    2.82465228
  19  Mg   -5.64931234   -7.82511193   -2.82465751
  20  Mg   -0.00000254   -7.82511104   -8.47396731
  21  O     5.64930820   -3.83044713   -8.47396571
  22  O     5.64930820   -3.83045163    2.82465387
  23  O    -5.64931138   -3.83044892    2.82465387
  24  O    -5.64931138   -3.83044442   -8.47396571
  25  Mg    8.47396310   -3.83044893   -5.64931082
  26  Mg    8.47396310   -3.83045118   -0.00000103
  27  Mg    2.82465331   -3.83045207    5.64930876
  28  Mg   -2.82465648   -3.83045072    5.64930876
  29  Mg   -8.47396627   -3.83044712   -0.00000103
  30  Mg   -8.47396627   -3.83044487   -5.64931082
  31  Mg    5.64930725   -7.82511689    2.82465228
  32  Mg   -5.64931234   -7.82511418    2.82465228
  33  O     8.47396214   -7.82511419   -5.64931241
  34  O     8.47396214   -7.82511644   -0.00000262
  35  O     2.82465235   -7.82511734    5.64930717
  36  O    -2.82465744   -7.82511598    5.64930717
  37  O    -8.47396723   -7.82511238   -0.00000262
  38  O    -8.47396723   -7.82511013   -5.64931241
  39  O    -2.82465744   -7.82510923  -11.29862220
  40  O     2.82465235   -7.82511059  -11.29862220
  41  O    11.29861800   -3.83045073   -2.82465592
  42  O    -0.00000159   -3.83045252    8.47396366
  43  O   -11.29862117   -3.83044531   -2.82465592
  44  Mg    8.47396310   -3.83045343    5.64930876
  45  Mg   -8.47396627   -3.83044937    5.64930876
  46  Mg   -0.00000254   -7.82511778    8.47396207
  47  O    11.29861800   -3.83044848   -8.47396571
  48  O    11.29861800   -3.83045298    2.82465387
  49  O     5.64930820   -3.83045387    8.47396366
  50  O    -5.64931138   -3.83045117    8.47396366
  51  O   -11.29862117   -3.83044756    2.82465387
  52  O   -11.29862117   -3.83044306   -8.47396571
  53  O     8.47396214   -7.82511869    5.64930717
  54  O    -8.47396723   -7.82511463    5.64930717
  55  O     2.82465235   -7.82511958   11.29861696
  56  O    -2.82465744   -7.82511823   11.29861696
  57  O    11.29861800   -3.83045523    8.47396366
  58  O   -11.29862117   -3.83044981    8.47396366
 
 Nuclear repulsion energy [au]:         75.567776385432
 
 
 Basis set information:
 
 Maximum angular momentum: i
 Maximum number of contracted Gaussians:   13
 Maximum number of primitive Gaussians:    16
 Spherical harmonic GTOs are used.
 
 
 Conventional basis set:
 
   1  Au def2-svp [ 7s 6p 5d 1f | 6s 3p 2d 1f ]
   2  Au def2-svp [ 7s 6p 5d 1f | 6s 3p 2d 1f ]
   3  O  def2-svp [ 7s 4p 1d | 3s 2p 1d ]
   4  Mg def2-svp [ 10s 7p 1d | 4s 3p 1d ]
   5  Mg def2-svp [ 10s 7p 1d | 4s 3p 1d ]
   6  Mg def2-svp [ 10s 7p 1d | 4s 3p 1d ]
   7  Mg def2-svp [ 10s 7p 1d | 4s 3p 1d ]
   8  Mg def2-svp [ 10s 7p 1d | 4s 3p 1d ]
   9  O  def2-svp [ 7s 4p 1d | 3s 2p 1d ]
  10  O  def2-svp [ 7s 4p 1d | 3s 2p 1d ]
  11  O  def2-svp [ 7s 4p 1d | 3s 2p 1d ]
  12  O  def2-svp [ 7s 4p 1d | 3s 2p 1d ]
  13  O  def2-svp [ 7s 4p 1d | 3s 2p 1d ]
  14  O  def2-svp [ 7s 4p 1d | 3s 2p 1d ]
  15  O  def2-svp [ 7s 4p 1d | 3s 2p 1d ]
  16  O  def2-svp [ 7s 4p 1d | 3s 2p 1d ]
  17  Mg def2-svp [ 10s 7p 1d | 4s 3p 1d ]
  18  Mg def2-svp [ 10s 7p 1d | 4s 3p 1d ]
  19  Mg def2-svp [ 10s 7p 1d | 4s 3p 1d ]
  20  Mg def2-svp [ 10s 7p 1d | 4s 3p 1d ]
  21  O  def2-svp [ 7s 4p 1d | 3s 2p 1d ]
  22  O  def2-svp [ 7s 4p 1d | 3s 2p 1d ]
  23  O  def2-svp [ 7s 4p 1d | 3s 2p 1d ]
  24  O  def2-svp [ 7s 4p 1d | 3s 2p 1d ]
  25  Mg def2-svp [ 10s 7p 1d | 4s 3p 1d ]
  26  Mg def2-svp [ 10s 7p 1d | 4s 3p 1d ]
  27  Mg def2-svp [ 10s 7p 1d | 4s 3p 1d ]
  28  Mg def2-svp [ 10s 7p 1d | 4s 3p 1d ]
  29  Mg def2-svp [ 10s 7p 1d | 4s 3p 1d ]
  30  Mg def2-svp [ 10s 7p 1d | 4s 3p 1d ]
  31  Mg def2-svp [ 10s 7p 1d | 4s 3p 1d ]
  32  Mg def2-svp [ 10s 7p 1d | 4s 3p 1d ]
  33  O  def2-svp [ 7s 4p 1d | 3s 2p 1d ]
  34  O  def2-svp [ 7s 4p 1d | 3s 2p 1d ]
  35  O  def2-svp [ 7s 4p 1d | 3s 2p 1d ]
  36  O  def2-svp [ 7s 4p 1d | 3s 2p 1d ]
  37  O  def2-svp [ 7s 4p 1d | 3s 2p 1d ]
  38  O  def2-svp [ 7s 4p 1d | 3s 2p 1d ]
  39  O  def2-svp [ 7s 4p 1d | 3s 2p 1d ]
  40  O  def2-svp [ 7s 4p 1d | 3s 2p 1d ]
  41  O  def2-svp [ 7s 4p 1d | 3s 2p 1d ]
  42  O  def2-svp [ 7s 4p 1d | 3s 2p 1d ]
  43  O  def2-svp [ 7s 4p 1d | 3s 2p 1d ]
  44  Mg def2-svp [ 10s 7p 1d | 4s 3p 1d ]
  45  Mg def2-svp [ 10s 7p 1d | 4s 3p 1d ]
  46  Mg def2-svp [ 10s 7p 1d | 4s 3p 1d ]
  47  O  def2-svp [ 7s 4p 1d | 3s 2p 1d ]
  48  O  def2-svp [ 7s 4p 1d | 3s 2p 1d ]
  49  O  def2-svp [ 7s 4p 1d | 3s 2p 1d ]
  50  O  def2-svp [ 7s 4p 1d | 3s 2p 1d ]
  51  O  def2-svp [ 7s 4p 1d | 3s 2p 1d ]
  52  O  def2-svp [ 7s 4p 1d | 3s 2p 1d ]
  53  O  def2-svp [ 7s 4p 1d | 3s 2p 1d ]
  54  O  def2-svp [ 7s 4p 1d | 3s 2p 1d ]
  55  O  def2-svp [ 7s 4p 1d | 3s 2p 1d ]
  56  O  def2-svp [ 7s 4p 1d | 3s 2p 1d ]
  57  O  def2-svp [ 7s 4p 1d | 3s 2p 1d ]
  58  O  def2-svp [ 7s 4p 1d | 3s 2p 1d ]
 
 Basis functions:
            1             2             3             4             5             6             7             8             9            10
    0    1Au1s         1Au2s         1Au3s         1Au4s         1Au5s         1Au6s         1Au1pz        1Au1py        1Au1px        1Au2pz    
    1    1Au2py        1Au2px        1Au3pz        1Au3py        1Au3px        1Au1d-2       1Au1d-1       1Au1d0        1Au1d+1       1Au1d+2   
    2    1Au2d-2       1Au2d-1       1Au2d0        1Au2d+1       1Au2d+2       1Au1f-3       1Au1f-2       1Au1f-1       1Au1f0        1Au1f+1   
    3    1Au1f+2       1Au1f+3       2Au1s         2Au2s         2Au3s         2Au4s         2Au5s         2Au6s         2Au1pz        2Au1py    
    4    2Au1px        2Au2pz        2Au2py        2Au2px        2Au3pz        2Au3py        2Au3px        2Au1d-2       2Au1d-1       2Au1d0    
    5    2Au1d+1       2Au1d+2       2Au2d-2       2Au2d-1       2Au2d0        2Au2d+1       2Au2d+2       2Au1f-3       2Au1f-2       2Au1f-1   
    6    2Au1f0        2Au1f+1       2Au1f+2       2Au1f+3       3O1s          3O2s          3O3s          3O1pz         3O1py         3O1px     
    7    3O2pz         3O2py         3O2px         3O1d-2        3O1d-1        3O1d0         3O1d+1        3O1d+2        4Mg1s         4Mg2s     
    8    4Mg3s         4Mg4s         4Mg1pz        4Mg1py        4Mg1px        4Mg2pz        4Mg2py        4Mg2px        4Mg3pz        4Mg3py    
    9    4Mg3px        4Mg1d-2       4Mg1d-1       4Mg1d0        4Mg1d+1       4Mg1d+2       5Mg1s         5Mg2s         5Mg3s         5Mg4s     
   10    5Mg1pz        5Mg1py        5Mg1px        5Mg2pz        5Mg2py        5Mg2px        5Mg3pz        5Mg3py        5Mg3px        5Mg1d-2   
   11    5Mg1d-1       5Mg1d0        5Mg1d+1       5Mg1d+2       6Mg1s         6Mg2s         6Mg3s         6Mg4s         6Mg1pz        6Mg1py    
   12    6Mg1px        6Mg2pz        6Mg2py        6Mg2px        6Mg3pz        6Mg3py        6Mg3px        6Mg1d-2       6Mg1d-1       6Mg1d0    
   13    6Mg1d+1       6Mg1d+2       7Mg1s         7Mg2s         7Mg3s         7Mg4s         7Mg1pz        7Mg1py        7Mg1px        7Mg2pz    
   14    7Mg2py        7Mg2px        7Mg3pz        7Mg3py        7Mg3px        7Mg1d-2       7Mg1d-1       7Mg1d0        7Mg1d+1       7Mg1d+2   
   15    8Mg1s         8Mg2s         8Mg3s         8Mg4s         8Mg1pz        8Mg1py        8Mg1px        8Mg2pz        8Mg2py        8Mg2px    
   16    8Mg3pz        8Mg3py        8Mg3px        8Mg1d-2       8Mg1d-1       8Mg1d0        8Mg1d+1       8Mg1d+2       9O1s          9O2s      
   17    9O3s          9O1pz         9O1py         9O1px         9O2pz         9O2py         9O2px         9O1d-2        9O1d-1        9O1d0     
   18    9O1d+1        9O1d+2       10O1s         10O2s         10O3s         10O1pz        10O1py        10O1px        10O2pz        10O2py     
   19   10O2px        10O1d-2       10O1d-1       10O1d0        10O1d+1       10O1d+2       11O1s         11O2s         11O3s         11O1pz     
   20   11O1py        11O1px        11O2pz        11O2py        11O2px        11O1d-2       11O1d-1       11O1d0        11O1d+1       11O1d+2    
   21   12O1s         12O2s         12O3s         12O1pz        12O1py        12O1px        12O2pz        12O2py        12O2px        12O1d-2    
   22   12O1d-1       12O1d0        12O1d+1       12O1d+2       13O1s         13O2s         13O3s         13O1pz        13O1py        13O1px     
   23   13O2pz        13O2py        13O2px        13O1d-2       13O1d-1       13O1d0        13O1d+1       13O1d+2       14O1s         14O2s      
   24   14O3s         14O1pz        14O1py        14O1px        14O2pz        14O2py        14O2px        14O1d-2       14O1d-1       14O1d0     
   25   14O1d+1       14O1d+2       15O1s         15O2s         15O3s         15O1pz        15O1py        15O1px        15O2pz        15O2py     
   26   15O2px        15O1d-2       15O1d-1       15O1d0        15O1d+1       15O1d+2       16O1s         16O2s         16O3s         16O1pz     
   27   16O1py        16O1px        16O2pz        16O2py        16O2px        16O1d-2       16O1d-1       16O1d0        16O1d+1       16O1d+2    
   28   17Mg1s        17Mg2s        17Mg3s        17Mg4s        17Mg1pz       17Mg1py       17Mg1px       17Mg2pz       17Mg2py       17Mg2px    
   29   17Mg3pz       17Mg3py       17Mg3px       17Mg1d-2      17Mg1d-1      17Mg1d0       17Mg1d+1      17Mg1d+2      18Mg1s        18Mg2s     
   30   18Mg3s        18Mg4s        18Mg1pz       18Mg1py       18Mg1px       18Mg2pz       18Mg2py       18Mg2px       18Mg3pz       18Mg3py    
   31   18Mg3px       18Mg1d-2      18Mg1d-1      18Mg1d0       18Mg1d+1      18Mg1d+2      19Mg1s        19Mg2s        19Mg3s        19Mg4s     
   32   19Mg1pz       19Mg1py       19Mg1px       19Mg2pz       19Mg2py       19Mg2px       19Mg3pz       19Mg3py       19Mg3px       19Mg1d-2   
   33   19Mg1d-1      19Mg1d0       19Mg1d+1      19Mg1d+2      20Mg1s        20Mg2s        20Mg3s        20Mg4s        20Mg1pz       20Mg1py    
   34   20Mg1px       20Mg2pz       20Mg2py       20Mg2px       20Mg3pz       20Mg3py       20Mg3px       20Mg1d-2      20Mg1d-1      20Mg1d0    
   35   20Mg1d+1      20Mg1d+2      21O1s         21O2s         21O3s         21O1pz        21O1py        21O1px        21O2pz        21O2py     
   36   21O2px        21O1d-2       21O1d-1       21O1d0        21O1d+1       21O1d+2       22O1s         22O2s         22O3s         22O1pz     
   37   22O1py        22O1px        22O2pz        22O2py        22O2px        22O1d-2       22O1d-1       22O1d0        22O1d+1       22O1d+2    
   38   23O1s         23O2s         23O3s         23O1pz        23O1py        23O1px        23O2pz        23O2py        23O2px        23O1d-2    
   39   23O1d-1       23O1d0        23O1d+1       23O1d+2       24O1s         24O2s         24O3s         24O1pz        24O1py        24O1px     
   40   24O2pz        24O2py        24O2px        24O1d-2       24O1d-1       24O1d0        24O1d+1       24O1d+2       25Mg1s        25Mg2s     
   41   25Mg3s        25Mg4s        25Mg1pz       25Mg1py       25Mg1px       25Mg2pz       25Mg2py       25Mg2px       25Mg3pz       25Mg3py    
   42   25Mg3px       25Mg1d-2      25Mg1d-1      25Mg1d0       25Mg1d+1      25Mg1d+2      26Mg1s        26Mg2s        26Mg3s        26Mg4s     
   43   26Mg1pz       26Mg1py       26Mg1px       26Mg2pz       26Mg2py       26Mg2px       26Mg3pz       26Mg3py       26Mg3px       26Mg1d-2   
   44   26Mg1d-1      26Mg1d0       26Mg1d+1      26Mg1d+2      27Mg1s        27Mg2s        27Mg3s        27Mg4s        27Mg1pz       27Mg1py    
   45   27Mg1px       27Mg2pz       27Mg2py       27Mg2px       27Mg3pz       27Mg3py       27Mg3px       27Mg1d-2      27Mg1d-1      27Mg1d0    
   46   27Mg1d+1      27Mg1d+2      28Mg1s        28Mg2s        28Mg3s        28Mg4s        28Mg1pz       28Mg1py       28Mg1px       28Mg2pz    
   47   28Mg2py       28Mg2px       28Mg3pz       28Mg3py       28Mg3px       28Mg1d-2      28Mg1d-1      28Mg1d0       28Mg1d+1      28Mg1d+2   
   48   29Mg1s        29Mg2s        29Mg3s        29Mg4s        29Mg1pz       29Mg1py       29Mg1px       29Mg2pz       29Mg2py       29Mg2px    
   49   29Mg3pz       29Mg3py       29Mg3px       29Mg1d-2      29Mg1d-1      29Mg1d0       29Mg1d+1      29Mg1d+2      30Mg1s        30Mg2s     
   50   30Mg3s        30Mg4s        30Mg1pz       30Mg1py       30Mg1px       30Mg2pz       30Mg2py       30Mg2px       30Mg3pz       30Mg3py    
   51   30Mg3px       30Mg1d-2      30Mg1d-1      30Mg1d0       30Mg1d+1      30Mg1d+2      31Mg1s        31Mg2s        31Mg3s        31Mg4s     
   52   31Mg1pz       31Mg1py       31Mg1px       31Mg2pz       31Mg2py       31Mg2px       31Mg3pz       31Mg3py       31Mg3px       31Mg1d-2   
   53   31Mg1d-1      31Mg1d0       31Mg1d+1      31Mg1d+2      32Mg1s        32Mg2s        32Mg3s        32Mg4s        32Mg1pz       32Mg1py    
   54   32Mg1px       32Mg2pz       32Mg2py       32Mg2px       32Mg3pz       32Mg3py       32Mg3px       32Mg1d-2      32Mg1d-1      32Mg1d0    
   55   32Mg1d+1      32Mg1d+2      33O1s         33O2s         33O3s         33O1pz        33O1py        33O1px        33O2pz        33O2py     
   56   33O2px        33O1d-2       33O1d-1       33O1d0        33O1d+1       33O1d+2       34O1s         34O2s         34O3s         34O1pz     
   57   34O1py        34O1px        34O2pz        34O2py        34O2px        34O1d-2       34O1d-1       34O1d0        34O1d+1       34O1d+2    
   58   35O1s         35O2s         35O3s         35O1pz        35O1py        35O1px        35O2pz        35O2py        35O2px        35O1d-2    
   59   35O1d-1       35O1d0        35O1d+1       35O1d+2       36O1s         36O2s         36O3s         36O1pz        36O1py        36O1px     
   60   36O2pz        36O2py        36O2px        36O1d-2       36O1d-1       36O1d0        36O1d+1       36O1d+2       37O1s         37O2s      
   61   37O3s         37O1pz        37O1py        37O1px        37O2pz        37O2py        37O2px        37O1d-2       37O1d-1       37O1d0     
   62   37O1d+1       37O1d+2       38O1s         38O2s         38O3s         38O1pz        38O1py        38O1px        38O2pz        38O2py     
   63   38O2px        38O1d-2       38O1d-1       38O1d0        38O1d+1       38O1d+2       39O1s         39O2s         39O3s         39O1pz     
   64   39O1py        39O1px        39O2pz        39O2py        39O2px        39O1d-2       39O1d-1       39O1d0        39O1d+1       39O1d+2    
   65   40O1s         40O2s         40O3s         40O1pz        40O1py        40O1px        40O2pz        40O2py        40O2px        40O1d-2    
   66   40O1d-1       40O1d0        40O1d+1       40O1d+2       41O1s         41O2s         41O3s         41O1pz        41O1py        41O1px     
   67   41O2pz        41O2py        41O2px        41O1d-2       41O1d-1       41O1d0        41O1d+1       41O1d+2       42O1s         42O2s      
   68   42O3s         42O1pz        42O1py        42O1px        42O2pz        42O2py        42O2px        42O1d-2       42O1d-1       42O1d0     
   69   42O1d+1       42O1d+2       43O1s         43O2s         43O3s         43O1pz        43O1py        43O1px        43O2pz        43O2py     
   70   43O2px        43O1d-2       43O1d-1       43O1d0        43O1d+1       43O1d+2       44Mg1s        44Mg2s        44Mg3s        44Mg4s     
   71   44Mg1pz       44Mg1py       44Mg1px       44Mg2pz       44Mg2py       44Mg2px       44Mg3pz       44Mg3py       44Mg3px       44Mg1d-2   
   72   44Mg1d-1      44Mg1d0       44Mg1d+1      44Mg1d+2      45Mg1s        45Mg2s        45Mg3s        45Mg4s        45Mg1pz       45Mg1py    
   73   45Mg1px       45Mg2pz       45Mg2py       45Mg2px       45Mg3pz       45Mg3py       45Mg3px       45Mg1d-2      45Mg1d-1      45Mg1d0    
   74   45Mg1d+1      45Mg1d+2      46Mg1s        46Mg2s        46Mg3s        46Mg4s        46Mg1pz       46Mg1py       46Mg1px       46Mg2pz    
   75   46Mg2py       46Mg2px       46Mg3pz       46Mg3py       46Mg3px       46Mg1d-2      46Mg1d-1      46Mg1d0       46Mg1d+1      46Mg1d+2   
   76   47O1s         47O2s         47O3s         47O1pz        47O1py        47O1px        47O2pz        47O2py        47O2px        47O1d-2    
   77   47O1d-1       47O1d0        47O1d+1       47O1d+2       48O1s         48O2s         48O3s         48O1pz        48O1py        48O1px     
   78   48O2pz        48O2py        48O2px        48O1d-2       48O1d-1       48O1d0        48O1d+1       48O1d+2       49O1s         49O2s      
   79   49O3s         49O1pz        49O1py        49O1px        49O2pz        49O2py        49O2px        49O1d-2       49O1d-1       49O1d0     
   80   49O1d+1       49O1d+2       50O1s         50O2s         50O3s         50O1pz        50O1py        50O1px        50O2pz        50O2py     
   81   50O2px        50O1d-2       50O1d-1       50O1d0        50O1d+1       50O1d+2       51O1s         51O2s         51O3s         51O1pz     
   82   51O1py        51O1px        51O2pz        51O2py        51O2px        51O1d-2       51O1d-1       51O1d0        51O1d+1       51O1d+2    
   83   52O1s         52O2s         52O3s         52O1pz        52O1py        52O1px        52O2pz        52O2py        52O2px        52O1d-2    
   84   52O1d-1       52O1d0        52O1d+1       52O1d+2       53O1s         53O2s         53O3s         53O1pz        53O1py        53O1px     
   85   53O2pz        53O2py        53O2px        53O1d-2       53O1d-1       53O1d0        53O1d+1       53O1d+2       54O1s         54O2s      
   86   54O3s         54O1pz        54O1py        54O1px        54O2pz        54O2py        54O2px        54O1d-2       54O1d-1       54O1d0     
   87   54O1d+1       54O1d+2       55O1s         55O2s         55O3s         55O1pz        55O1py        55O1px        55O2pz        55O2py     
   88   55O2px        55O1d-2       55O1d-1       55O1d0        55O1d+1       55O1d+2       56O1s         56O2s         56O3s         56O1pz     
   89   56O1py        56O1px        56O2pz        56O2py        56O2px        56O1d-2       56O1d-1       56O1d0        56O1d+1       56O1d+2    
   90   57O1s         57O2s         57O3s         57O1pz        57O1py        57O1px        57O2pz        57O2py        57O2px        57O1d-2    
   91   57O1d-1       57O1d0        57O1d+1       57O1d+2       58O1s         58O2s         58O3s         58O1pz        58O1py        58O1px     
   92   58O2pz        58O2py        58O2px        58O1d-2       58O1d-1       58O1d0        58O1d+1       58O1d+2    
 
 Maximum number of basis functions per shell:   10
 Total number of basis functions:    928
 
 
 Fitting basis set for the SCF calculation:
 
   1  Au def2-qzvpp-ri-jk [ 13s 12p 11d 9f 5g 3h 2i | 13s 11p 10d 8f 4g 3h 2i ]
   2  Au def2-qzvpp-ri-jk [ 13s 12p 11d 9f 5g 3h 2i | 13s 11p 10d 8f 4g 3h 2i ]
   3  O  def2-qzvpp-ri-jk [ 14s 10p 6d 2f 1g | 10s 8p 4d 2f 1g ]
   4  Mg def2-qzvpp-ri-jk [ 16s 12p 9d 4f 1g | 13s 9p 7d 4f 1g ]
   5  Mg def2-qzvpp-ri-jk [ 16s 12p 9d 4f 1g | 13s 9p 7d 4f 1g ]
   6  Mg def2-qzvpp-ri-jk [ 16s 12p 9d 4f 1g | 13s 9p 7d 4f 1g ]
   7  Mg def2-qzvpp-ri-jk [ 16s 12p 9d 4f 1g | 13s 9p 7d 4f 1g ]
   8  Mg def2-qzvpp-ri-jk [ 16s 12p 9d 4f 1g | 13s 9p 7d 4f 1g ]
   9  O  def2-qzvpp-ri-jk [ 14s 10p 6d 2f 1g | 10s 8p 4d 2f 1g ]
  10  O  def2-qzvpp-ri-jk [ 14s 10p 6d 2f 1g | 10s 8p 4d 2f 1g ]
  11  O  def2-qzvpp-ri-jk [ 14s 10p 6d 2f 1g | 10s 8p 4d 2f 1g ]
  12  O  def2-qzvpp-ri-jk [ 14s 10p 6d 2f 1g | 10s 8p 4d 2f 1g ]
  13  O  def2-qzvpp-ri-jk [ 14s 10p 6d 2f 1g | 10s 8p 4d 2f 1g ]
  14  O  def2-qzvpp-ri-jk [ 14s 10p 6d 2f 1g | 10s 8p 4d 2f 1g ]
  15  O  def2-qzvpp-ri-jk [ 14s 10p 6d 2f 1g | 10s 8p 4d 2f 1g ]
  16  O  def2-qzvpp-ri-jk [ 14s 10p 6d 2f 1g | 10s 8p 4d 2f 1g ]
  17  Mg def2-qzvpp-ri-jk [ 16s 12p 9d 4f 1g | 13s 9p 7d 4f 1g ]
  18  Mg def2-qzvpp-ri-jk [ 16s 12p 9d 4f 1g | 13s 9p 7d 4f 1g ]
  19  Mg def2-qzvpp-ri-jk [ 16s 12p 9d 4f 1g | 13s 9p 7d 4f 1g ]
  20  Mg def2-qzvpp-ri-jk [ 16s 12p 9d 4f 1g | 13s 9p 7d 4f 1g ]
  21  O  def2-qzvpp-ri-jk [ 14s 10p 6d 2f 1g | 10s 8p 4d 2f 1g ]
  22  O  def2-qzvpp-ri-jk [ 14s 10p 6d 2f 1g | 10s 8p 4d 2f 1g ]
  23  O  def2-qzvpp-ri-jk [ 14s 10p 6d 2f 1g | 10s 8p 4d 2f 1g ]
  24  O  def2-qzvpp-ri-jk [ 14s 10p 6d 2f 1g | 10s 8p 4d 2f 1g ]
  25  Mg def2-qzvpp-ri-jk [ 16s 12p 9d 4f 1g | 13s 9p 7d 4f 1g ]
  26  Mg def2-qzvpp-ri-jk [ 16s 12p 9d 4f 1g | 13s 9p 7d 4f 1g ]
  27  Mg def2-qzvpp-ri-jk [ 16s 12p 9d 4f 1g | 13s 9p 7d 4f 1g ]
  28  Mg def2-qzvpp-ri-jk [ 16s 12p 9d 4f 1g | 13s 9p 7d 4f 1g ]
  29  Mg def2-qzvpp-ri-jk [ 16s 12p 9d 4f 1g | 13s 9p 7d 4f 1g ]
  30  Mg def2-qzvpp-ri-jk [ 16s 12p 9d 4f 1g | 13s 9p 7d 4f 1g ]
  31  Mg def2-qzvpp-ri-jk [ 16s 12p 9d 4f 1g | 13s 9p 7d 4f 1g ]
  32  Mg def2-qzvpp-ri-jk [ 16s 12p 9d 4f 1g | 13s 9p 7d 4f 1g ]
  33  O  def2-qzvpp-ri-jk [ 14s 10p 6d 2f 1g | 10s 8p 4d 2f 1g ]
  34  O  def2-qzvpp-ri-jk [ 14s 10p 6d 2f 1g | 10s 8p 4d 2f 1g ]
  35  O  def2-qzvpp-ri-jk [ 14s 10p 6d 2f 1g | 10s 8p 4d 2f 1g ]
  36  O  def2-qzvpp-ri-jk [ 14s 10p 6d 2f 1g | 10s 8p 4d 2f 1g ]
  37  O  def2-qzvpp-ri-jk [ 14s 10p 6d 2f 1g | 10s 8p 4d 2f 1g ]
  38  O  def2-qzvpp-ri-jk [ 14s 10p 6d 2f 1g | 10s 8p 4d 2f 1g ]
  39  O  def2-qzvpp-ri-jk [ 14s 10p 6d 2f 1g | 10s 8p 4d 2f 1g ]
  40  O  def2-qzvpp-ri-jk [ 14s 10p 6d 2f 1g | 10s 8p 4d 2f 1g ]
  41  O  def2-qzvpp-ri-jk [ 14s 10p 6d 2f 1g | 10s 8p 4d 2f 1g ]
  42  O  def2-qzvpp-ri-jk [ 14s 10p 6d 2f 1g | 10s 8p 4d 2f 1g ]
  43  O  def2-qzvpp-ri-jk [ 14s 10p 6d 2f 1g | 10s 8p 4d 2f 1g ]
  44  Mg def2-qzvpp-ri-jk [ 16s 12p 9d 4f 1g | 13s 9p 7d 4f 1g ]
  45  Mg def2-qzvpp-ri-jk [ 16s 12p 9d 4f 1g | 13s 9p 7d 4f 1g ]
  46  Mg def2-qzvpp-ri-jk [ 16s 12p 9d 4f 1g | 13s 9p 7d 4f 1g ]
  47  O  def2-qzvpp-ri-jk [ 14s 10p 6d 2f 1g | 10s 8p 4d 2f 1g ]
  48  O  def2-qzvpp-ri-jk [ 14s 10p 6d 2f 1g | 10s 8p 4d 2f 1g ]
  49  O  def2-qzvpp-ri-jk [ 14s 10p 6d 2f 1g | 10s 8p 4d 2f 1g ]
  50  O  def2-qzvpp-ri-jk [ 14s 10p 6d 2f 1g | 10s 8p 4d 2f 1g ]
  51  O  def2-qzvpp-ri-jk [ 14s 10p 6d 2f 1g | 10s 8p 4d 2f 1g ]
  52  O  def2-qzvpp-ri-jk [ 14s 10p 6d 2f 1g | 10s 8p 4d 2f 1g ]
  53  O  def2-qzvpp-ri-jk [ 14s 10p 6d 2f 1g | 10s 8p 4d 2f 1g ]
  54  O  def2-qzvpp-ri-jk [ 14s 10p 6d 2f 1g | 10s 8p 4d 2f 1g ]
  55  O  def2-qzvpp-ri-jk [ 14s 10p 6d 2f 1g | 10s 8p 4d 2f 1g ]
  56  O  def2-qzvpp-ri-jk [ 14s 10p 6d 2f 1g | 10s 8p 4d 2f 1g ]
  57  O  def2-qzvpp-ri-jk [ 14s 10p 6d 2f 1g | 10s 8p 4d 2f 1g ]
  58  O  def2-qzvpp-ri-jk [ 14s 10p 6d 2f 1g | 10s 8p 4d 2f 1g ]
 
 Basis functions:
            1             2             3             4             5             6             7             8             9            10
    0    1Au1s         1Au2s         1Au3s         1Au4s         1Au5s         1Au6s         1Au7s         1Au8s         1Au9s         1Au10s    
    1    1Au11s        1Au12s        1Au13s        1Au1pz        1Au1py        1Au1px        1Au2pz        1Au2py        1Au2px        1Au3pz    
    2    1Au3py        1Au3px        1Au4pz        1Au4py        1Au4px        1Au5pz        1Au5py        1Au5px        1Au6pz        1Au6py    
    3    1Au6px        1Au7pz        1Au7py        1Au7px        1Au8pz        1Au8py        1Au8px        1Au9pz        1Au9py        1Au9px    
    4    1Au10pz       1Au10py       1Au10px       1Au11pz       1Au11py       1Au11px       1Au1d-2       1Au1d-1       1Au1d0        1Au1d+1   
    5    1Au1d+2       1Au2d-2       1Au2d-1       1Au2d0        1Au2d+1       1Au2d+2       1Au3d-2       1Au3d-1       1Au3d0        1Au3d+1   
    6    1Au3d+2       1Au4d-2       1Au4d-1       1Au4d0        1Au4d+1       1Au4d+2       1Au5d-2       1Au5d-1       1Au5d0        1Au5d+1   
    7    1Au5d+2       1Au6d-2       1Au6d-1       1Au6d0        1Au6d+1       1Au6d+2       1Au7d-2       1Au7d-1       1Au7d0        1Au7d+1   
    8    1Au7d+2       1Au8d-2       1Au8d-1       1Au8d0        1Au8d+1       1Au8d+2       1Au9d-2       1Au9d-1       1Au9d0        1Au9d+1   
    9    1Au9d+2       1Au10d-2      1Au10d-1      1Au10d0       1Au10d+1      1Au10d+2      1Au1f-3       1Au1f-2       1Au1f-1       1Au1f0    
   10    1Au1f+1       1Au1f+2       1Au1f+3       1Au2f-3       1Au2f-2       1Au2f-1       1Au2f0        1Au2f+1       1Au2f+2       1Au2f+3   
   11    1Au3f-3       1Au3f-2       1Au3f-1       1Au3f0        1Au3f+1       1Au3f+2       1Au3f+3       1Au4f-3       1Au4f-2       1Au4f-1   
   12    1Au4f0        1Au4f+1       1Au4f+2       1Au4f+3       1Au5f-3       1Au5f-2       1Au5f-1       1Au5f0        1Au5f+1       1Au5f+2   
   13    1Au5f+3       1Au6f-3       1Au6f-2       1Au6f-1       1Au6f0        1Au6f+1       1Au6f+2       1Au6f+3       1Au7f-3       1Au7f-2   
   14    1Au7f-1       1Au7f0        1Au7f+1       1Au7f+2       1Au7f+3       1Au8f-3       1Au8f-2       1Au8f-1       1Au8f0        1Au8f+1   
   15    1Au8f+2       1Au8f+3       1Au1g-4       1Au1g-3       1Au1g-2       1Au1g-1       1Au1g0        1Au1g+1       1Au1g+2       1Au1g+3   
   16    1Au1g+4       1Au2g-4       1Au2g-3       1Au2g-2       1Au2g-1       1Au2g0        1Au2g+1       1Au2g+2       1Au2g+3       1Au2g+4   
   17    1Au3g-4       1Au3g-3       1Au3g-2       1Au3g-1       1Au3g0        1Au3g+1       1Au3g+2       1Au3g+3       1Au3g+4       1Au4g-4   
   18    1Au4g-3       1Au4g-2       1Au4g-1       1Au4g0        1Au4g+1       1Au4g+2       1Au4g+3       1Au4g+4       1Au1h-5       1Au1h-4   
   19    1Au1h-3       1Au1h-2       1Au1h-1       1Au1h0        1Au1h+1       1Au1h+2       1Au1h+3       1Au1h+4       1Au1h+5       1Au2h-5   
   20    1Au2h-4       1Au2h-3       1Au2h-2       1Au2h-1       1Au2h0        1Au2h+1       1Au2h+2       1Au2h+3       1Au2h+4       1Au2h+5   
   21    1Au3h-5       1Au3h-4       1Au3h-3       1Au3h-2       1Au3h-1       1Au3h0        1Au3h+1       1Au3h+2       1Au3h+3       1Au3h+4   
   22    1Au3h+5       1Au1i-6       1Au1i-5       1Au1i-4       1Au1i-3       1Au1i-2       1Au1i-1       1Au1i0        1Au1i+1       1Au1i+2   
   23    1Au1i+3       1Au1i+4       1Au1i+5       1Au1i+6       1Au2i-6       1Au2i-5       1Au2i-4       1Au2i-3       1Au2i-2       1Au2i-1   
   24    1Au2i0        1Au2i+1       1Au2i+2       1Au2i+3       1Au2i+4       1Au2i+5       1Au2i+6       2Au1s         2Au2s         2Au3s     
   25    2Au4s         2Au5s         2Au6s         2Au7s         2Au8s         2Au9s         2Au10s        2Au11s        2Au12s        2Au13s    
   26    2Au1pz        2Au1py        2Au1px        2Au2pz        2Au2py        2Au2px        2Au3pz        2Au3py        2Au3px        2Au4pz    
   27    2Au4py        2Au4px        2Au5pz        2Au5py        2Au5px        2Au6pz        2Au6py        2Au6px        2Au7pz        2Au7py    
   28    2Au7px        2Au8pz        2Au8py        2Au8px        2Au9pz        2Au9py        2Au9px        2Au10pz       2Au10py       2Au10px   
   29    2Au11pz       2Au11py       2Au11px       2Au1d-2       2Au1d-1       2Au1d0        2Au1d+1       2Au1d+2       2Au2d-2       2Au2d-1   
   30    2Au2d0        2Au2d+1       2Au2d+2       2Au3d-2       2Au3d-1       2Au3d0        2Au3d+1       2Au3d+2       2Au4d-2       2Au4d-1   
   31    2Au4d0        2Au4d+1       2Au4d+2       2Au5d-2       2Au5d-1       2Au5d0        2Au5d+1       2Au5d+2       2Au6d-2       2Au6d-1   
   32    2Au6d0        2Au6d+1       2Au6d+2       2Au7d-2       2Au7d-1       2Au7d0        2Au7d+1       2Au7d+2       2Au8d-2       2Au8d-1   
   33    2Au8d0        2Au8d+1       2Au8d+2       2Au9d-2       2Au9d-1       2Au9d0        2Au9d+1       2Au9d+2       2Au10d-2      2Au10d-1  
   34    2Au10d0       2Au10d+1      2Au10d+2      2Au1f-3       2Au1f-2       2Au1f-1       2Au1f0        2Au1f+1       2Au1f+2       2Au1f+3   
   35    2Au2f-3       2Au2f-2       2Au2f-1       2Au2f0        2Au2f+1       2Au2f+2       2Au2f+3       2Au3f-3       2Au3f-2       2Au3f-1   
   36    2Au3f0        2Au3f+1       2Au3f+2       2Au3f+3       2Au4f-3       2Au4f-2       2Au4f-1       2Au4f0        2Au4f+1       2Au4f+2   
   37    2Au4f+3       2Au5f-3       2Au5f-2       2Au5f-1       2Au5f0        2Au5f+1       2Au5f+2       2Au5f+3       2Au6f-3       2Au6f-2   
   38    2Au6f-1       2Au6f0        2Au6f+1       2Au6f+2       2Au6f+3       2Au7f-3       2Au7f-2       2Au7f-1       2Au7f0        2Au7f+1   
   39    2Au7f+2       2Au7f+3       2Au8f-3       2Au8f-2       2Au8f-1       2Au8f0        2Au8f+1       2Au8f+2       2Au8f+3       2Au1g-4   
   40    2Au1g-3       2Au1g-2       2Au1g-1       2Au1g0        2Au1g+1       2Au1g+2       2Au1g+3       2Au1g+4       2Au2g-4       2Au2g-3   
   41    2Au2g-2       2Au2g-1       2Au2g0        2Au2g+1       2Au2g+2       2Au2g+3       2Au2g+4       2Au3g-4       2Au3g-3       2Au3g-2   
   42    2Au3g-1       2Au3g0        2Au3g+1       2Au3g+2       2Au3g+3       2Au3g+4       2Au4g-4       2Au4g-3       2Au4g-2       2Au4g-1   
   43    2Au4g0        2Au4g+1       2Au4g+2       2Au4g+3       2Au4g+4       2Au1h-5       2Au1h-4       2Au1h-3       2Au1h-2       2Au1h-1   
   44    2Au1h0        2Au1h+1       2Au1h+2       2Au1h+3       2Au1h+4       2Au1h+5       2Au2h-5       2Au2h-4       2Au2h-3       2Au2h-2   
   45    2Au2h-1       2Au2h0        2Au2h+1       2Au2h+2       2Au2h+3       2Au2h+4       2Au2h+5       2Au3h-5       2Au3h-4       2Au3h-3   
   46    2Au3h-2       2Au3h-1       2Au3h0        2Au3h+1       2Au3h+2       2Au3h+3       2Au3h+4       2Au3h+5       2Au1i-6       2Au1i-5   
   47    2Au1i-4       2Au1i-3       2Au1i-2       2Au1i-1       2Au1i0        2Au1i+1       2Au1i+2       2Au1i+3       2Au1i+4       2Au1i+5   
   48    2Au1i+6       2Au2i-6       2Au2i-5       2Au2i-4       2Au2i-3       2Au2i-2       2Au2i-1       2Au2i0        2Au2i+1       2Au2i+2   
   49    2Au2i+3       2Au2i+4       2Au2i+5       2Au2i+6       3O1s          3O2s          3O3s          3O4s          3O5s          3O6s      
   50    3O7s          3O8s          3O9s          3O10s         3O1pz         3O1py         3O1px         3O2pz         3O2py         3O2px     
   51    3O3pz         3O3py         3O3px         3O4pz         3O4py         3O4px         3O5pz         3O5py         3O5px         3O6pz     
   52    3O6py         3O6px         3O7pz         3O7py         3O7px         3O8pz         3O8py         3O8px         3O1d-2        3O1d-1    
   53    3O1d0         3O1d+1        3O1d+2        3O2d-2        3O2d-1        3O2d0         3O2d+1        3O2d+2        3O3d-2        3O3d-1    
   54    3O3d0         3O3d+1        3O3d+2        3O4d-2        3O4d-1        3O4d0         3O4d+1        3O4d+2        3O1f-3        3O1f-2    
   55    3O1f-1        3O1f0         3O1f+1        3O1f+2        3O1f+3        3O2f-3        3O2f-2        3O2f-1        3O2f0         3O2f+1    
   56    3O2f+2        3O2f+3        3O1g-4        3O1g-3        3O1g-2        3O1g-1        3O1g0         3O1g+1        3O1g+2        3O1g+3    
   57    3O1g+4        4Mg1s         4Mg2s         4Mg3s         4Mg4s         4Mg5s         4Mg6s         4Mg7s         4Mg8s         4Mg9s     
   58    4Mg10s        4Mg11s        4Mg12s        4Mg13s        4Mg1pz        4Mg1py        4Mg1px        4Mg2pz        4Mg2py        4Mg2px    
   59    4Mg3pz        4Mg3py        4Mg3px        4Mg4pz        4Mg4py        4Mg4px        4Mg5pz        4Mg5py        4Mg5px        4Mg6pz    
   60    4Mg6py        4Mg6px        4Mg7pz        4Mg7py        4Mg7px        4Mg8pz        4Mg8py        4Mg8px        4Mg9pz        4Mg9py    
   61    4Mg9px        4Mg1d-2       4Mg1d-1       4Mg1d0        4Mg1d+1       4Mg1d+2       4Mg2d-2       4Mg2d-1       4Mg2d0        4Mg2d+1   
   62    4Mg2d+2       4Mg3d-2       4Mg3d-1       4Mg3d0        4Mg3d+1       4Mg3d+2       4Mg4d-2       4Mg4d-1       4Mg4d0        4Mg4d+1   
   63    4Mg4d+2       4Mg5d-2       4Mg5d-1       4Mg5d0        4Mg5d+1       4Mg5d+2       4Mg6d-2       4Mg6d-1       4Mg6d0        4Mg6d+1   
   64    4Mg6d+2       4Mg7d-2       4Mg7d-1       4Mg7d0        4Mg7d+1       4Mg7d+2       4Mg1f-3       4Mg1f-2       4Mg1f-1       4Mg1f0    
   65    4Mg1f+1       4Mg1f+2       4Mg1f+3       4Mg2f-3       4Mg2f-2       4Mg2f-1       4Mg2f0        4Mg2f+1       4Mg2f+2       4Mg2f+3   
   66    4Mg3f-3       4Mg3f-2       4Mg3f-1       4Mg3f0        4Mg3f+1       4Mg3f+2       4Mg3f+3       4Mg4f-3       4Mg4f-2       4Mg4f-1   
   67    4Mg4f0        4Mg4f+1       4Mg4f+2       4Mg4f+3       4Mg1g-4       4Mg1g-3       4Mg1g-2       4Mg1g-1       4Mg1g0        4Mg1g+1   
   68    4Mg1g+2       4Mg1g+3       4Mg1g+4       5Mg1s         5Mg2s         5Mg3s         5Mg4s         5Mg5s         5Mg6s         5Mg7s     
   69    5Mg8s         5Mg9s         5Mg10s        5Mg11s        5Mg12s        5Mg13s        5Mg1pz        5Mg1py        5Mg1px        5Mg2pz    
   70    5Mg2py        5Mg2px        5Mg3pz        5Mg3py        5Mg3px        5Mg4pz        5Mg4py        5Mg4px        5Mg5pz        5Mg5py    
   71    5Mg5px        5Mg6pz        5Mg6py        5Mg6px        5Mg7pz        5Mg7py        5Mg7px        5Mg8pz        5Mg8py        5Mg8px    
   72    5Mg9pz        5Mg9py        5Mg9px        5Mg1d-2       5Mg1d-1       5Mg1d0        5Mg1d+1       5Mg1d+2       5Mg2d-2       5Mg2d-1   
   73    5Mg2d0        5Mg2d+1       5Mg2d+2       5Mg3d-2       5Mg3d-1       5Mg3d0        5Mg3d+1       5Mg3d+2       5Mg4d-2       5Mg4d-1   
   74    5Mg4d0        5Mg4d+1       5Mg4d+2       5Mg5d-2       5Mg5d-1       5Mg5d0        5Mg5d+1       5Mg5d+2       5Mg6d-2       5Mg6d-1   
   75    5Mg6d0        5Mg6d+1       5Mg6d+2       5Mg7d-2       5Mg7d-1       5Mg7d0        5Mg7d+1       5Mg7d+2       5Mg1f-3       5Mg1f-2   
   76    5Mg1f-1       5Mg1f0        5Mg1f+1       5Mg1f+2       5Mg1f+3       5Mg2f-3       5Mg2f-2       5Mg2f-1       5Mg2f0        5Mg2f+1   
   77    5Mg2f+2       5Mg2f+3       5Mg3f-3       5Mg3f-2       5Mg3f-1       5Mg3f0        5Mg3f+1       5Mg3f+2       5Mg3f+3       5Mg4f-3   
   78    5Mg4f-2       5Mg4f-1       5Mg4f0        5Mg4f+1       5Mg4f+2       5Mg4f+3       5Mg1g-4       5Mg1g-3       5Mg1g-2       5Mg1g-1   
   79    5Mg1g0        5Mg1g+1       5Mg1g+2       5Mg1g+3       5Mg1g+4       6Mg1s         6Mg2s         6Mg3s         6Mg4s         6Mg5s     
   80    6Mg6s         6Mg7s         6Mg8s         6Mg9s         6Mg10s        6Mg11s        6Mg12s        6Mg13s        6Mg1pz        6Mg1py    
   81    6Mg1px        6Mg2pz        6Mg2py        6Mg2px        6Mg3pz        6Mg3py        6Mg3px        6Mg4pz        6Mg4py        6Mg4px    
   82    6Mg5pz        6Mg5py        6Mg5px        6Mg6pz        6Mg6py        6Mg6px        6Mg7pz        6Mg7py        6Mg7px        6Mg8pz    
   83    6Mg8py        6Mg8px        6Mg9pz        6Mg9py        6Mg9px        6Mg1d-2       6Mg1d-1       6Mg1d0        6Mg1d+1       6Mg1d+2   
   84    6Mg2d-2       6Mg2d-1       6Mg2d0        6Mg2d+1       6Mg2d+2       6Mg3d-2       6Mg3d-1       6Mg3d0        6Mg3d+1       6Mg3d+2   
   85    6Mg4d-2       6Mg4d-1       6Mg4d0        6Mg4d+1       6Mg4d+2       6Mg5d-2       6Mg5d-1       6Mg5d0        6Mg5d+1       6Mg5d+2   
   86    6Mg6d-2       6Mg6d-1       6Mg6d0        6Mg6d+1       6Mg6d+2       6Mg7d-2       6Mg7d-1       6Mg7d0        6Mg7d+1       6Mg7d+2   
   87    6Mg1f-3       6Mg1f-2       6Mg1f-1       6Mg1f0        6Mg1f+1       6Mg1f+2       6Mg1f+3       6Mg2f-3       6Mg2f-2       6Mg2f-1   
   88    6Mg2f0        6Mg2f+1       6Mg2f+2       6Mg2f+3       6Mg3f-3       6Mg3f-2       6Mg3f-1       6Mg3f0        6Mg3f+1       6Mg3f+2   
   89    6Mg3f+3       6Mg4f-3       6Mg4f-2       6Mg4f-1       6Mg4f0        6Mg4f+1       6Mg4f+2       6Mg4f+3       6Mg1g-4       6Mg1g-3   
   90    6Mg1g-2       6Mg1g-1       6Mg1g0        6Mg1g+1       6Mg1g+2       6Mg1g+3       6Mg1g+4       7Mg1s         7Mg2s         7Mg3s     
   91    7Mg4s         7Mg5s         7Mg6s         7Mg7s         7Mg8s         7Mg9s         7Mg10s        7Mg11s        7Mg12s        7Mg13s    
   92    7Mg1pz        7Mg1py        7Mg1px        7Mg2pz        7Mg2py        7Mg2px        7Mg3pz        7Mg3py        7Mg3px        7Mg4pz    
   93    7Mg4py        7Mg4px        7Mg5pz        7Mg5py        7Mg5px        7Mg6pz        7Mg6py        7Mg6px        7Mg7pz        7Mg7py    
   94    7Mg7px        7Mg8pz        7Mg8py        7Mg8px        7Mg9pz        7Mg9py        7Mg9px        7Mg1d-2       7Mg1d-1       7Mg1d0    
   95    7Mg1d+1       7Mg1d+2       7Mg2d-2       7Mg2d-1       7Mg2d0        7Mg2d+1       7Mg2d+2       7Mg3d-2       7Mg3d-1       7Mg3d0    
   96    7Mg3d+1       7Mg3d+2       7Mg4d-2       7Mg4d-1       7Mg4d0        7Mg4d+1       7Mg4d+2       7Mg5d-2       7Mg5d-1       7Mg5d0    
   97    7Mg5d+1       7Mg5d+2       7Mg6d-2       7Mg6d-1       7Mg6d0        7Mg6d+1       7Mg6d+2       7Mg7d-2       7Mg7d-1       7Mg7d0    
   98    7Mg7d+1       7Mg7d+2       7Mg1f-3       7Mg1f-2       7Mg1f-1       7Mg1f0        7Mg1f+1       7Mg1f+2       7Mg1f+3       7Mg2f-3   
   99    7Mg2f-2       7Mg2f-1       7Mg2f0        7Mg2f+1       7Mg2f+2       7Mg2f+3       7Mg3f-3       7Mg3f-2       7Mg3f-1       7Mg3f0    
  100    7Mg3f+1       7Mg3f+2       7Mg3f+3       7Mg4f-3       7Mg4f-2       7Mg4f-1       7Mg4f0        7Mg4f+1       7Mg4f+2       7Mg4f+3   
  101    7Mg1g-4       7Mg1g-3       7Mg1g-2       7Mg1g-1       7Mg1g0        7Mg1g+1       7Mg1g+2       7Mg1g+3       7Mg1g+4       8Mg1s     
  102    8Mg2s         8Mg3s         8Mg4s         8Mg5s         8Mg6s         8Mg7s         8Mg8s         8Mg9s         8Mg10s        8Mg11s    
  103    8Mg12s        8Mg13s        8Mg1pz        8Mg1py        8Mg1px        8Mg2pz        8Mg2py        8Mg2px        8Mg3pz        8Mg3py    
  104    8Mg3px        8Mg4pz        8Mg4py        8Mg4px        8Mg5pz        8Mg5py        8Mg5px        8Mg6pz        8Mg6py        8Mg6px    
  105    8Mg7pz        8Mg7py        8Mg7px        8Mg8pz        8Mg8py        8Mg8px        8Mg9pz        8Mg9py        8Mg9px        8Mg1d-2   
  106    8Mg1d-1       8Mg1d0        8Mg1d+1       8Mg1d+2       8Mg2d-2       8Mg2d-1       8Mg2d0        8Mg2d+1       8Mg2d+2       8Mg3d-2   
  107    8Mg3d-1       8Mg3d0        8Mg3d+1       8Mg3d+2       8Mg4d-2       8Mg4d-1       8Mg4d0        8Mg4d+1       8Mg4d+2       8Mg5d-2   
  108    8Mg5d-1       8Mg5d0        8Mg5d+1       8Mg5d+2       8Mg6d-2       8Mg6d-1       8Mg6d0        8Mg6d+1       8Mg6d+2       8Mg7d-2   
  109    8Mg7d-1       8Mg7d0        8Mg7d+1       8Mg7d+2       8Mg1f-3       8Mg1f-2       8Mg1f-1       8Mg1f0        8Mg1f+1       8Mg1f+2   
  110    8Mg1f+3       8Mg2f-3       8Mg2f-2       8Mg2f-1       8Mg2f0        8Mg2f+1       8Mg2f+2       8Mg2f+3       8Mg3f-3       8Mg3f-2   
  111    8Mg3f-1       8Mg3f0        8Mg3f+1       8Mg3f+2       8Mg3f+3       8Mg4f-3       8Mg4f-2       8Mg4f-1       8Mg4f0        8Mg4f+1   
  112    8Mg4f+2       8Mg4f+3       8Mg1g-4       8Mg1g-3       8Mg1g-2       8Mg1g-1       8Mg1g0        8Mg1g+1       8Mg1g+2       8Mg1g+3   
  113    8Mg1g+4       9O1s          9O2s          9O3s          9O4s          9O5s          9O6s          9O7s          9O8s          9O9s      
  114    9O10s         9O1pz         9O1py         9O1px         9O2pz         9O2py         9O2px         9O3pz         9O3py         9O3px     
  115    9O4pz         9O4py         9O4px         9O5pz         9O5py         9O5px         9O6pz         9O6py         9O6px         9O7pz     
  116    9O7py         9O7px         9O8pz         9O8py         9O8px         9O1d-2        9O1d-1        9O1d0         9O1d+1        9O1d+2    
  117    9O2d-2        9O2d-1        9O2d0         9O2d+1        9O2d+2        9O3d-2        9O3d-1        9O3d0         9O3d+1        9O3d+2    
  118    9O4d-2        9O4d-1        9O4d0         9O4d+1        9O4d+2        9O1f-3        9O1f-2        9O1f-1        9O1f0         9O1f+1    
  119    9O1f+2        9O1f+3        9O2f-3        9O2f-2        9O2f-1        9O2f0         9O2f+1        9O2f+2        9O2f+3        9O1g-4    
  120    9O1g-3        9O1g-2        9O1g-1        9O1g0         9O1g+1        9O1g+2        9O1g+3        9O1g+4       10O1s         10O2s      
  121   10O3s         10O4s         10O5s         10O6s         10O7s         10O8s         10O9s         10O10s        10O1pz        10O1py     
  122   10O1px        10O2pz        10O2py        10O2px        10O3pz        10O3py        10O3px        10O4pz        10O4py        10O4px     
  123   10O5pz        10O5py        10O5px        10O6pz        10O6py        10O6px        10O7pz        10O7py        10O7px        10O8pz     
  124   10O8py        10O8px        10O1d-2       10O1d-1       10O1d0        10O1d+1       10O1d+2       10O2d-2       10O2d-1       10O2d0     
  125   10O2d+1       10O2d+2       10O3d-2       10O3d-1       10O3d0        10O3d+1       10O3d+2       10O4d-2       10O4d-1       10O4d0     
  126   10O4d+1       10O4d+2       10O1f-3       10O1f-2       10O1f-1       10O1f0        10O1f+1       10O1f+2       10O1f+3       10O2f-3    
  127   10O2f-2       10O2f-1       10O2f0        10O2f+1       10O2f+2       10O2f+3       10O1g-4       10O1g-3       10O1g-2       10O1g-1    
  128   10O1g0        10O1g+1       10O1g+2       10O1g+3       10O1g+4       11O1s         11O2s         11O3s         11O4s         11O5s      
  129   11O6s         11O7s         11O8s         11O9s         11O10s        11O1pz        11O1py        11O1px        11O2pz        11O2py     
  130   11O2px        11O3pz        11O3py        11O3px        11O4pz        11O4py        11O4px        11O5pz        11O5py        11O5px     
  131   11O6pz        11O6py        11O6px        11O7pz        11O7py        11O7px        11O8pz        11O8py        11O8px        11O1d-2    
  132   11O1d-1       11O1d0        11O1d+1       11O1d+2       11O2d-2       11O2d-1       11O2d0        11O2d+1       11O2d+2       11O3d-2    
  133   11O3d-1       11O3d0        11O3d+1       11O3d+2       11O4d-2       11O4d-1       11O4d0        11O4d+1       11O4d+2       11O1f-3    
  134   11O1f-2       11O1f-1       11O1f0        11O1f+1       11O1f+2       11O1f+3       11O2f-3       11O2f-2       11O2f-1       11O2f0     
  135   11O2f+1       11O2f+2       11O2f+3       11O1g-4       11O1g-3       11O1g-2       11O1g-1       11O1g0        11O1g+1       11O1g+2    
  136   11O1g+3       11O1g+4       12O1s         12O2s         12O3s         12O4s         12O5s         12O6s         12O7s         12O8s      
  137   12O9s         12O10s        12O1pz        12O1py        12O1px        12O2pz        12O2py        12O2px        12O3pz        12O3py     
  138   12O3px        12O4pz        12O4py        12O4px        12O5pz        12O5py        12O5px        12O6pz        12O6py        12O6px     
  139   12O7pz        12O7py        12O7px        12O8pz        12O8py        12O8px        12O1d-2       12O1d-1       12O1d0        12O1d+1    
  140   12O1d+2       12O2d-2       12O2d-1       12O2d0        12O2d+1       12O2d+2       12O3d-2       12O3d-1       12O3d0        12O3d+1    
  141   12O3d+2       12O4d-2       12O4d-1       12O4d0        12O4d+1       12O4d+2       12O1f-3       12O1f-2       12O1f-1       12O1f0     
  142   12O1f+1       12O1f+2       12O1f+3       12O2f-3       12O2f-2       12O2f-1       12O2f0        12O2f+1       12O2f+2       12O2f+3    
  143   12O1g-4       12O1g-3       12O1g-2       12O1g-1       12O1g0        12O1g+1       12O1g+2       12O1g+3       12O1g+4       13O1s      
  144   13O2s         13O3s         13O4s         13O5s         13O6s         13O7s         13O8s         13O9s         13O10s        13O1pz     
  145   13O1py        13O1px        13O2pz        13O2py        13O2px        13O3pz        13O3py        13O3px        13O4pz        13O4py     
  146   13O4px        13O5pz        13O5py        13O5px        13O6pz        13O6py        13O6px        13O7pz        13O7py        13O7px     
  147   13O8pz        13O8py        13O8px        13O1d-2       13O1d-1       13O1d0        13O1d+1       13O1d+2       13O2d-2       13O2d-1    
  148   13O2d0        13O2d+1       13O2d+2       13O3d-2       13O3d-1       13O3d0        13O3d+1       13O3d+2       13O4d-2       13O4d-1    
  149   13O4d0        13O4d+1       13O4d+2       13O1f-3       13O1f-2       13O1f-1       13O1f0        13O1f+1       13O1f+2       13O1f+3    
  150   13O2f-3       13O2f-2       13O2f-1       13O2f0        13O2f+1       13O2f+2       13O2f+3       13O1g-4       13O1g-3       13O1g-2    
  151   13O1g-1       13O1g0        13O1g+1       13O1g+2       13O1g+3       13O1g+4       14O1s         14O2s         14O3s         14O4s      
  152   14O5s         14O6s         14O7s         14O8s         14O9s         14O10s        14O1pz        14O1py        14O1px        14O2pz     
  153   14O2py        14O2px        14O3pz        14O3py        14O3px        14O4pz        14O4py        14O4px        14O5pz        14O5py     
  154   14O5px        14O6pz        14O6py        14O6px        14O7pz        14O7py        14O7px        14O8pz        14O8py        14O8px     
  155   14O1d-2       14O1d-1       14O1d0        14O1d+1       14O1d+2       14O2d-2       14O2d-1       14O2d0        14O2d+1       14O2d+2    
  156   14O3d-2       14O3d-1       14O3d0        14O3d+1       14O3d+2       14O4d-2       14O4d-1       14O4d0        14O4d+1       14O4d+2    
  157   14O1f-3       14O1f-2       14O1f-1       14O1f0        14O1f+1       14O1f+2       14O1f+3       14O2f-3       14O2f-2       14O2f-1    
  158   14O2f0        14O2f+1       14O2f+2       14O2f+3       14O1g-4       14O1g-3       14O1g-2       14O1g-1       14O1g0        14O1g+1    
  159   14O1g+2       14O1g+3       14O1g+4       15O1s         15O2s         15O3s         15O4s         15O5s         15O6s         15O7s      
  160   15O8s         15O9s         15O10s        15O1pz        15O1py        15O1px        15O2pz        15O2py        15O2px        15O3pz     
  161   15O3py        15O3px        15O4pz        15O4py        15O4px        15O5pz        15O5py        15O5px        15O6pz        15O6py     
  162   15O6px        15O7pz        15O7py        15O7px        15O8pz        15O8py        15O8px        15O1d-2       15O1d-1       15O1d0     
  163   15O1d+1       15O1d+2       15O2d-2       15O2d-1       15O2d0        15O2d+1       15O2d+2       15O3d-2       15O3d-1       15O3d0     
  164   15O3d+1       15O3d+2       15O4d-2       15O4d-1       15O4d0        15O4d+1       15O4d+2       15O1f-3       15O1f-2       15O1f-1    
  165   15O1f0        15O1f+1       15O1f+2       15O1f+3       15O2f-3       15O2f-2       15O2f-1       15O2f0        15O2f+1       15O2f+2    
  166   15O2f+3       15O1g-4       15O1g-3       15O1g-2       15O1g-1       15O1g0        15O1g+1       15O1g+2       15O1g+3       15O1g+4    
  167   16O1s         16O2s         16O3s         16O4s         16O5s         16O6s         16O7s         16O8s         16O9s         16O10s     
  168   16O1pz        16O1py        16O1px        16O2pz        16O2py        16O2px        16O3pz        16O3py        16O3px        16O4pz     
  169   16O4py        16O4px        16O5pz        16O5py        16O5px        16O6pz        16O6py        16O6px        16O7pz        16O7py     
  170   16O7px        16O8pz        16O8py        16O8px        16O1d-2       16O1d-1       16O1d0        16O1d+1       16O1d+2       16O2d-2    
  171   16O2d-1       16O2d0        16O2d+1       16O2d+2       16O3d-2       16O3d-1       16O3d0        16O3d+1       16O3d+2       16O4d-2    
  172   16O4d-1       16O4d0        16O4d+1       16O4d+2       16O1f-3       16O1f-2       16O1f-1       16O1f0        16O1f+1       16O1f+2    
  173   16O1f+3       16O2f-3       16O2f-2       16O2f-1       16O2f0        16O2f+1       16O2f+2       16O2f+3       16O1g-4       16O1g-3    
  174   16O1g-2       16O1g-1       16O1g0        16O1g+1       16O1g+2       16O1g+3       16O1g+4       17Mg1s        17Mg2s        17Mg3s     
  175   17Mg4s        17Mg5s        17Mg6s        17Mg7s        17Mg8s        17Mg9s        17Mg10s       17Mg11s       17Mg12s       17Mg13s    
  176   17Mg1pz       17Mg1py       17Mg1px       17Mg2pz       17Mg2py       17Mg2px       17Mg3pz       17Mg3py       17Mg3px       17Mg4pz    
  177   17Mg4py       17Mg4px       17Mg5pz       17Mg5py       17Mg5px       17Mg6pz       17Mg6py       17Mg6px       17Mg7pz       17Mg7py    
  178   17Mg7px       17Mg8pz       17Mg8py       17Mg8px       17Mg9pz       17Mg9py       17Mg9px       17Mg1d-2      17Mg1d-1      17Mg1d0    
  179   17Mg1d+1      17Mg1d+2      17Mg2d-2      17Mg2d-1      17Mg2d0       17Mg2d+1      17Mg2d+2      17Mg3d-2      17Mg3d-1      17Mg3d0    
  180   17Mg3d+1      17Mg3d+2      17Mg4d-2      17Mg4d-1      17Mg4d0       17Mg4d+1      17Mg4d+2      17Mg5d-2      17Mg5d-1      17Mg5d0    
  181   17Mg5d+1      17Mg5d+2      17Mg6d-2      17Mg6d-1      17Mg6d0       17Mg6d+1      17Mg6d+2      17Mg7d-2      17Mg7d-1      17Mg7d0    
  182   17Mg7d+1      17Mg7d+2      17Mg1f-3      17Mg1f-2      17Mg1f-1      17Mg1f0       17Mg1f+1      17Mg1f+2      17Mg1f+3      17Mg2f-3   
  183   17Mg2f-2      17Mg2f-1      17Mg2f0       17Mg2f+1      17Mg2f+2      17Mg2f+3      17Mg3f-3      17Mg3f-2      17Mg3f-1      17Mg3f0    
  184   17Mg3f+1      17Mg3f+2      17Mg3f+3      17Mg4f-3      17Mg4f-2      17Mg4f-1      17Mg4f0       17Mg4f+1      17Mg4f+2      17Mg4f+3   
  185   17Mg1g-4      17Mg1g-3      17Mg1g-2      17Mg1g-1      17Mg1g0       17Mg1g+1      17Mg1g+2      17Mg1g+3      17Mg1g+4      18Mg1s     
  186   18Mg2s        18Mg3s        18Mg4s        18Mg5s        18Mg6s        18Mg7s        18Mg8s        18Mg9s        18Mg10s       18Mg11s    
  187   18Mg12s       18Mg13s       18Mg1pz       18Mg1py       18Mg1px       18Mg2pz       18Mg2py       18Mg2px       18Mg3pz       18Mg3py    
  188   18Mg3px       18Mg4pz       18Mg4py       18Mg4px       18Mg5pz       18Mg5py       18Mg5px       18Mg6pz       18Mg6py       18Mg6px    
  189   18Mg7pz       18Mg7py       18Mg7px       18Mg8pz       18Mg8py       18Mg8px       18Mg9pz       18Mg9py       18Mg9px       18Mg1d-2   
  190   18Mg1d-1      18Mg1d0       18Mg1d+1      18Mg1d+2      18Mg2d-2      18Mg2d-1      18Mg2d0       18Mg2d+1      18Mg2d+2      18Mg3d-2   
  191   18Mg3d-1      18Mg3d0       18Mg3d+1      18Mg3d+2      18Mg4d-2      18Mg4d-1      18Mg4d0       18Mg4d+1      18Mg4d+2      18Mg5d-2   
  192   18Mg5d-1      18Mg5d0       18Mg5d+1      18Mg5d+2      18Mg6d-2      18Mg6d-1      18Mg6d0       18Mg6d+1      18Mg6d+2      18Mg7d-2   
  193   18Mg7d-1      18Mg7d0       18Mg7d+1      18Mg7d+2      18Mg1f-3      18Mg1f-2      18Mg1f-1      18Mg1f0       18Mg1f+1      18Mg1f+2   
  194   18Mg1f+3      18Mg2f-3      18Mg2f-2      18Mg2f-1      18Mg2f0       18Mg2f+1      18Mg2f+2      18Mg2f+3      18Mg3f-3      18Mg3f-2   
  195   18Mg3f-1      18Mg3f0       18Mg3f+1      18Mg3f+2      18Mg3f+3      18Mg4f-3      18Mg4f-2      18Mg4f-1      18Mg4f0       18Mg4f+1   
  196   18Mg4f+2      18Mg4f+3      18Mg1g-4      18Mg1g-3      18Mg1g-2      18Mg1g-1      18Mg1g0       18Mg1g+1      18Mg1g+2      18Mg1g+3   
  197   18Mg1g+4      19Mg1s        19Mg2s        19Mg3s        19Mg4s        19Mg5s        19Mg6s        19Mg7s        19Mg8s        19Mg9s     
  198   19Mg10s       19Mg11s       19Mg12s       19Mg13s       19Mg1pz       19Mg1py       19Mg1px       19Mg2pz       19Mg2py       19Mg2px    
  199   19Mg3pz       19Mg3py       19Mg3px       19Mg4pz       19Mg4py       19Mg4px       19Mg5pz       19Mg5py       19Mg5px       19Mg6pz    
  200   19Mg6py       19Mg6px       19Mg7pz       19Mg7py       19Mg7px       19Mg8pz       19Mg8py       19Mg8px       19Mg9pz       19Mg9py    
  201   19Mg9px       19Mg1d-2      19Mg1d-1      19Mg1d0       19Mg1d+1      19Mg1d+2      19Mg2d-2      19Mg2d-1      19Mg2d0       19Mg2d+1   
  202   19Mg2d+2      19Mg3d-2      19Mg3d-1      19Mg3d0       19Mg3d+1      19Mg3d+2      19Mg4d-2      19Mg4d-1      19Mg4d0       19Mg4d+1   
  203   19Mg4d+2      19Mg5d-2      19Mg5d-1      19Mg5d0       19Mg5d+1      19Mg5d+2      19Mg6d-2      19Mg6d-1      19Mg6d0       19Mg6d+1   
  204   19Mg6d+2      19Mg7d-2      19Mg7d-1      19Mg7d0       19Mg7d+1      19Mg7d+2      19Mg1f-3      19Mg1f-2      19Mg1f-1      19Mg1f0    
  205   19Mg1f+1      19Mg1f+2      19Mg1f+3      19Mg2f-3      19Mg2f-2      19Mg2f-1      19Mg2f0       19Mg2f+1      19Mg2f+2      19Mg2f+3   
  206   19Mg3f-3      19Mg3f-2      19Mg3f-1      19Mg3f0       19Mg3f+1      19Mg3f+2      19Mg3f+3      19Mg4f-3      19Mg4f-2      19Mg4f-1   
  207   19Mg4f0       19Mg4f+1      19Mg4f+2      19Mg4f+3      19Mg1g-4      19Mg1g-3      19Mg1g-2      19Mg1g-1      19Mg1g0       19Mg1g+1   
  208   19Mg1g+2      19Mg1g+3      19Mg1g+4      20Mg1s        20Mg2s        20Mg3s        20Mg4s        20Mg5s        20Mg6s        20Mg7s     
  209   20Mg8s        20Mg9s        20Mg10s       20Mg11s       20Mg12s       20Mg13s       20Mg1pz       20Mg1py       20Mg1px       20Mg2pz    
  210   20Mg2py       20Mg2px       20Mg3pz       20Mg3py       20Mg3px       20Mg4pz       20Mg4py       20Mg4px       20Mg5pz       20Mg5py    
  211   20Mg5px       20Mg6pz       20Mg6py       20Mg6px       20Mg7pz       20Mg7py       20Mg7px       20Mg8pz       20Mg8py       20Mg8px    
  212   20Mg9pz       20Mg9py       20Mg9px       20Mg1d-2      20Mg1d-1      20Mg1d0       20Mg1d+1      20Mg1d+2      20Mg2d-2      20Mg2d-1   
  213   20Mg2d0       20Mg2d+1      20Mg2d+2      20Mg3d-2      20Mg3d-1      20Mg3d0       20Mg3d+1      20Mg3d+2      20Mg4d-2      20Mg4d-1   
  214   20Mg4d0       20Mg4d+1      20Mg4d+2      20Mg5d-2      20Mg5d-1      20Mg5d0       20Mg5d+1      20Mg5d+2      20Mg6d-2      20Mg6d-1   
  215   20Mg6d0       20Mg6d+1      20Mg6d+2      20Mg7d-2      20Mg7d-1      20Mg7d0       20Mg7d+1      20Mg7d+2      20Mg1f-3      20Mg1f-2   
  216   20Mg1f-1      20Mg1f0       20Mg1f+1      20Mg1f+2      20Mg1f+3      20Mg2f-3      20Mg2f-2      20Mg2f-1      20Mg2f0       20Mg2f+1   
  217   20Mg2f+2      20Mg2f+3      20Mg3f-3      20Mg3f-2      20Mg3f-1      20Mg3f0       20Mg3f+1      20Mg3f+2      20Mg3f+3      20Mg4f-3   
  218   20Mg4f-2      20Mg4f-1      20Mg4f0       20Mg4f+1      20Mg4f+2      20Mg4f+3      20Mg1g-4      20Mg1g-3      20Mg1g-2      20Mg1g-1   
  219   20Mg1g0       20Mg1g+1      20Mg1g+2      20Mg1g+3      20Mg1g+4      21O1s         21O2s         21O3s         21O4s         21O5s      
  220   21O6s         21O7s         21O8s         21O9s         21O10s        21O1pz        21O1py        21O1px        21O2pz        21O2py     
  221   21O2px        21O3pz        21O3py        21O3px        21O4pz        21O4py        21O4px        21O5pz        21O5py        21O5px     
  222   21O6pz        21O6py        21O6px        21O7pz        21O7py        21O7px        21O8pz        21O8py        21O8px        21O1d-2    
  223   21O1d-1       21O1d0        21O1d+1       21O1d+2       21O2d-2       21O2d-1       21O2d0        21O2d+1       21O2d+2       21O3d-2    
  224   21O3d-1       21O3d0        21O3d+1       21O3d+2       21O4d-2       21O4d-1       21O4d0        21O4d+1       21O4d+2       21O1f-3    
  225   21O1f-2       21O1f-1       21O1f0        21O1f+1       21O1f+2       21O1f+3       21O2f-3       21O2f-2       21O2f-1       21O2f0     
  226   21O2f+1       21O2f+2       21O2f+3       21O1g-4       21O1g-3       21O1g-2       21O1g-1       21O1g0        21O1g+1       21O1g+2    
  227   21O1g+3       21O1g+4       22O1s         22O2s         22O3s         22O4s         22O5s         22O6s         22O7s         22O8s      
  228   22O9s         22O10s        22O1pz        22O1py        22O1px        22O2pz        22O2py        22O2px        22O3pz        22O3py     
  229   22O3px        22O4pz        22O4py        22O4px        22O5pz        22O5py        22O5px        22O6pz        22O6py        22O6px     
  230   22O7pz        22O7py        22O7px        22O8pz        22O8py        22O8px        22O1d-2       22O1d-1       22O1d0        22O1d+1    
  231   22O1d+2       22O2d-2       22O2d-1       22O2d0        22O2d+1       22O2d+2       22O3d-2       22O3d-1       22O3d0        22O3d+1    
  232   22O3d+2       22O4d-2       22O4d-1       22O4d0        22O4d+1       22O4d+2       22O1f-3       22O1f-2       22O1f-1       22O1f0     
  233   22O1f+1       22O1f+2       22O1f+3       22O2f-3       22O2f-2       22O2f-1       22O2f0        22O2f+1       22O2f+2       22O2f+3    
  234   22O1g-4       22O1g-3       22O1g-2       22O1g-1       22O1g0        22O1g+1       22O1g+2       22O1g+3       22O1g+4       23O1s      
  235   23O2s         23O3s         23O4s         23O5s         23O6s         23O7s         23O8s         23O9s         23O10s        23O1pz     
  236   23O1py        23O1px        23O2pz        23O2py        23O2px        23O3pz        23O3py        23O3px        23O4pz        23O4py     
  237   23O4px        23O5pz        23O5py        23O5px        23O6pz        23O6py        23O6px        23O7pz        23O7py        23O7px     
  238   23O8pz        23O8py        23O8px        23O1d-2       23O1d-1       23O1d0        23O1d+1       23O1d+2       23O2d-2       23O2d-1    
  239   23O2d0        23O2d+1       23O2d+2       23O3d-2       23O3d-1       23O3d0        23O3d+1       23O3d+2       23O4d-2       23O4d-1    
  240   23O4d0        23O4d+1       23O4d+2       23O1f-3       23O1f-2       23O1f-1       23O1f0        23O1f+1       23O1f+2       23O1f+3    
  241   23O2f-3       23O2f-2       23O2f-1       23O2f0        23O2f+1       23O2f+2       23O2f+3       23O1g-4       23O1g-3       23O1g-2    
  242   23O1g-1       23O1g0        23O1g+1       23O1g+2       23O1g+3       23O1g+4       24O1s         24O2s         24O3s         24O4s      
  243   24O5s         24O6s         24O7s         24O8s         24O9s         24O10s        24O1pz        24O1py        24O1px        24O2pz     
  244   24O2py        24O2px        24O3pz        24O3py        24O3px        24O4pz        24O4py        24O4px        24O5pz        24O5py     
  245   24O5px        24O6pz        24O6py        24O6px        24O7pz        24O7py        24O7px        24O8pz        24O8py        24O8px     
  246   24O1d-2       24O1d-1       24O1d0        24O1d+1       24O1d+2       24O2d-2       24O2d-1       24O2d0        24O2d+1       24O2d+2    
  247   24O3d-2       24O3d-1       24O3d0        24O3d+1       24O3d+2       24O4d-2       24O4d-1       24O4d0        24O4d+1       24O4d+2    
  248   24O1f-3       24O1f-2       24O1f-1       24O1f0        24O1f+1       24O1f+2       24O1f+3       24O2f-3       24O2f-2       24O2f-1    
  249   24O2f0        24O2f+1       24O2f+2       24O2f+3       24O1g-4       24O1g-3       24O1g-2       24O1g-1       24O1g0        24O1g+1    
  250   24O1g+2       24O1g+3       24O1g+4       25Mg1s        25Mg2s        25Mg3s        25Mg4s        25Mg5s        25Mg6s        25Mg7s     
  251   25Mg8s        25Mg9s        25Mg10s       25Mg11s       25Mg12s       25Mg13s       25Mg1pz       25Mg1py       25Mg1px       25Mg2pz    
  252   25Mg2py       25Mg2px       25Mg3pz       25Mg3py       25Mg3px       25Mg4pz       25Mg4py       25Mg4px       25Mg5pz       25Mg5py    
  253   25Mg5px       25Mg6pz       25Mg6py       25Mg6px       25Mg7pz       25Mg7py       25Mg7px       25Mg8pz       25Mg8py       25Mg8px    
  254   25Mg9pz       25Mg9py       25Mg9px       25Mg1d-2      25Mg1d-1      25Mg1d0       25Mg1d+1      25Mg1d+2      25Mg2d-2      25Mg2d-1   
  255   25Mg2d0       25Mg2d+1      25Mg2d+2      25Mg3d-2      25Mg3d-1      25Mg3d0       25Mg3d+1      25Mg3d+2      25Mg4d-2      25Mg4d-1   
  256   25Mg4d0       25Mg4d+1      25Mg4d+2      25Mg5d-2      25Mg5d-1      25Mg5d0       25Mg5d+1      25Mg5d+2      25Mg6d-2      25Mg6d-1   
  257   25Mg6d0       25Mg6d+1      25Mg6d+2      25Mg7d-2      25Mg7d-1      25Mg7d0       25Mg7d+1      25Mg7d+2      25Mg1f-3      25Mg1f-2   
  258   25Mg1f-1      25Mg1f0       25Mg1f+1      25Mg1f+2      25Mg1f+3      25Mg2f-3      25Mg2f-2      25Mg2f-1      25Mg2f0       25Mg2f+1   
  259   25Mg2f+2      25Mg2f+3      25Mg3f-3      25Mg3f-2      25Mg3f-1      25Mg3f0       25Mg3f+1      25Mg3f+2      25Mg3f+3      25Mg4f-3   
  260   25Mg4f-2      25Mg4f-1      25Mg4f0       25Mg4f+1      25Mg4f+2      25Mg4f+3      25Mg1g-4      25Mg1g-3      25Mg1g-2      25Mg1g-1   
  261   25Mg1g0       25Mg1g+1      25Mg1g+2      25Mg1g+3      25Mg1g+4      26Mg1s        26Mg2s        26Mg3s        26Mg4s        26Mg5s     
  262   26Mg6s        26Mg7s        26Mg8s        26Mg9s        26Mg10s       26Mg11s       26Mg12s       26Mg13s       26Mg1pz       26Mg1py    
  263   26Mg1px       26Mg2pz       26Mg2py       26Mg2px       26Mg3pz       26Mg3py       26Mg3px       26Mg4pz       26Mg4py       26Mg4px    
  264   26Mg5pz       26Mg5py       26Mg5px       26Mg6pz       26Mg6py       26Mg6px       26Mg7pz       26Mg7py       26Mg7px       26Mg8pz    
  265   26Mg8py       26Mg8px       26Mg9pz       26Mg9py       26Mg9px       26Mg1d-2      26Mg1d-1      26Mg1d0       26Mg1d+1      26Mg1d+2   
  266   26Mg2d-2      26Mg2d-1      26Mg2d0       26Mg2d+1      26Mg2d+2      26Mg3d-2      26Mg3d-1      26Mg3d0       26Mg3d+1      26Mg3d+2   
  267   26Mg4d-2      26Mg4d-1      26Mg4d0       26Mg4d+1      26Mg4d+2      26Mg5d-2      26Mg5d-1      26Mg5d0       26Mg5d+1      26Mg5d+2   
  268   26Mg6d-2      26Mg6d-1      26Mg6d0       26Mg6d+1      26Mg6d+2      26Mg7d-2      26Mg7d-1      26Mg7d0       26Mg7d+1      26Mg7d+2   
  269   26Mg1f-3      26Mg1f-2      26Mg1f-1      26Mg1f0       26Mg1f+1      26Mg1f+2      26Mg1f+3      26Mg2f-3      26Mg2f-2      26Mg2f-1   
  270   26Mg2f0       26Mg2f+1      26Mg2f+2      26Mg2f+3      26Mg3f-3      26Mg3f-2      26Mg3f-1      26Mg3f0       26Mg3f+1      26Mg3f+2   
  271   26Mg3f+3      26Mg4f-3      26Mg4f-2      26Mg4f-1      26Mg4f0       26Mg4f+1      26Mg4f+2      26Mg4f+3      26Mg1g-4      26Mg1g-3   
  272   26Mg1g-2      26Mg1g-1      26Mg1g0       26Mg1g+1      26Mg1g+2      26Mg1g+3      26Mg1g+4      27Mg1s        27Mg2s        27Mg3s     
  273   27Mg4s        27Mg5s        27Mg6s        27Mg7s        27Mg8s        27Mg9s        27Mg10s       27Mg11s       27Mg12s       27Mg13s    
  274   27Mg1pz       27Mg1py       27Mg1px       27Mg2pz       27Mg2py       27Mg2px       27Mg3pz       27Mg3py       27Mg3px       27Mg4pz    
  275   27Mg4py       27Mg4px       27Mg5pz       27Mg5py       27Mg5px       27Mg6pz       27Mg6py       27Mg6px       27Mg7pz       27Mg7py    
  276   27Mg7px       27Mg8pz       27Mg8py       27Mg8px       27Mg9pz       27Mg9py       27Mg9px       27Mg1d-2      27Mg1d-1      27Mg1d0    
  277   27Mg1d+1      27Mg1d+2      27Mg2d-2      27Mg2d-1      27Mg2d0       27Mg2d+1      27Mg2d+2      27Mg3d-2      27Mg3d-1      27Mg3d0    
  278   27Mg3d+1      27Mg3d+2      27Mg4d-2      27Mg4d-1      27Mg4d0       27Mg4d+1      27Mg4d+2      27Mg5d-2      27Mg5d-1      27Mg5d0    
  279   27Mg5d+1      27Mg5d+2      27Mg6d-2      27Mg6d-1      27Mg6d0       27Mg6d+1      27Mg6d+2      27Mg7d-2      27Mg7d-1      27Mg7d0    
  280   27Mg7d+1      27Mg7d+2      27Mg1f-3      27Mg1f-2      27Mg1f-1      27Mg1f0       27Mg1f+1      27Mg1f+2      27Mg1f+3      27Mg2f-3   
[...]
 
 Calculation of (T) correction...
 
 Laplace threshold, nquadmin:  1.00E-03   4
 Number of quadrature points:    4
 
      110.66 MB memory is utilized for (T)

 0%       25%       50%       75%       100%
 |---------|---------|---------|---------| 
 
 (T) correction [au]:                   -0.002007550132
 CCSD(T) correlation energy [au]:       -0.059625220289
 
 CPU time [min]:    57.776                   Wall time [min]:     3.163
 
 MO:     7
 Number of atoms in domain:      32
 Number of atomic orbitals:     698
 Number of atoms for local DF:   32
 Number of fitting functions:  2636 (100.00%)
 Number of occupied orbitals:    11
 Number of virtual  orbitals:   679
 Number of Cholesky vectors:      9
 MP2 energy in ED [au]:          -0.063015971619
 Number of occupied LNOs:        11 (100.00%)
 Number of virtual  LNOs:        68  (10.01%)
 tol*100>norm                    22  4.475191944554666E-004
 tol*100>norm                    76  4.475191921284935E-004
 Number of Cholesky vectors:      6
 MP2 energy in LIS [au]:         -0.062986405042
 Correction for frozen LNO [au]: -0.000029566577     (0.047%)
 Number of NAFs:                243   (9.22%)
 CPU time [min]:    66.607                   Wall time [min]:     3.643
 

 Direct DF-CCSD(T) calculation
 
 Convergence criterion:  1.0E-05
 
 Number of occupied/virtual/auxiliary orbitals:    11    68   243
    100.64 MB is the minimal memory requirement for (T)
     75.78 MB is the minimal memory requirement for CCSD
 
 MP2 correlation energy [au]:       -0.637748413143
 
 LMP2 domain correlation energy contribution [au]:       -0.062998645228
 
 CPU time [min]:    66.641                   Wall time [min]:     3.645
 
 
 Starting CCSD iterations...
 
                     Residual norm       Correlation Energy
 Iteration  1        0.185538640940       -0.566336839575
 Iteration  2        0.057662952586       -0.585890572497
 Iteration  3        0.017710305070       -0.589192793153
 Iteration  4        0.007341021036       -0.588304769209
 Iteration  5        0.003984985422       -0.588231643544
 Iteration  6        0.002061865074       -0.588487114038
 Iteration  7        0.000979822562       -0.588486516477
 Iteration  8        0.000341134262       -0.588452490051
 Iteration  9        0.000143626434       -0.588456139144
 Iteration 10        0.000046425816       -0.588457509189
 
 CCSD iteration has converged in 10 steps.
      153.92 MB memory was utilized by CCSD
 
 T1 diagnostic:      2.141E-02            D1 diagnostic:      6.592E-02
 
 T1 contribution [au]:                         0.000000000000
 CCSD correlation energy [au]:                -0.057662012851
 
 CPU time [min]:    67.329                   Wall time [min]:     3.682
 
 Calculation of (T) correction...
 
 Laplace threshold, nquadmin:  1.00E-03   4
 Number of quadrature points:    4
 
      116.38 MB memory is utilized for (T)

 0%       25%       50%       75%       100%
 |---------|---------|---------|---------| 
 
 (T) correction [au]:                   -0.002017212040
 CCSD(T) correlation energy [au]:       -0.059679224891
 
 CPU time [min]:    67.548                   Wall time [min]:     3.694
 
 MO:     8
 Number of atoms in domain:      32
 Number of atomic orbitals:     698
 Number of atoms for local DF:   32
 Number of fitting functions:  2636 (100.00%)
 Number of occupied orbitals:    11
 Number of virtual  orbitals:   679
 Number of Cholesky vectors:      9
 MP2 energy in ED [au]:          -0.063015974073
 Number of occupied LNOs:        11 (100.00%)
 Number of virtual  LNOs:        68  (10.01%)
 tol*100>norm                    22  4.475191944554670E-004
 tol*100>norm                    76  4.475191921284940E-004
 Number of Cholesky vectors:      6
 MP2 energy in LIS [au]:         -0.062986407252
 Correction for frozen LNO [au]: -0.000029566822     (0.047%)
 Number of NAFs:                243   (9.22%)
 CPU time [min]:    76.373                   Wall time [min]:     4.175
 

 Direct DF-CCSD(T) calculation
 
 Convergence criterion:  1.0E-05
 
 Number of occupied/virtual/auxiliary orbitals:    11    68   243
    100.64 MB is the minimal memory requirement for (T)
     75.78 MB is the minimal memory requirement for CCSD
 
 MP2 correlation energy [au]:       -0.637748096178
 
 LMP2 domain correlation energy contribution [au]:       -0.062998645978
 
 CPU time [min]:    76.407                   Wall time [min]:     4.177
 
 
 Starting CCSD iterations...
 
                     Residual norm       Correlation Energy
 Iteration  1        0.185538567225       -0.566336606205
 Iteration  2        0.057662848958       -0.585890286584
 Iteration  3        0.017710276107       -0.589192502962
 Iteration  4        0.007341007187       -0.588304479151
 Iteration  5        0.003984980201       -0.588231354035
 Iteration  6        0.002061864891       -0.588486826764
 Iteration  7        0.000979822407       -0.588486228788
 Iteration  8        0.000341134681       -0.588452201957
 Iteration  9        0.000143626481       -0.588455850952
 Iteration 10        0.000046425803       -0.588457220979
 
 CCSD iteration has converged in 10 steps.
      153.92 MB memory was utilized by CCSD
 
 T1 diagnostic:      2.141E-02            D1 diagnostic:      6.592E-02
 
 T1 contribution [au]:                         0.000000000000
 CCSD correlation energy [au]:                -0.057662011516
 
 CPU time [min]:    77.053                   Wall time [min]:     4.211
 
 Calculation of (T) correction...
 
 Laplace threshold, nquadmin:  1.00E-03   4
 Number of quadrature points:    4
 
      116.38 MB memory is utilized for (T)

 0%       25%       50%       75%       100%
 |---------|---------|---------|---------| 
 
 (T) correction [au]:                   -0.002017211462
 CCSD(T) correlation energy [au]:       -0.059679222978
 
 CPU time [min]:    77.275                   Wall time [min]:     4.224
 
 MO:     9
 Number of atoms in domain:      32
 Number of atomic orbitals:     698
 Number of atoms for local DF:   32
 Number of fitting functions:  2636 (100.00%)
 Number of occupied orbitals:    11
 Number of virtual  orbitals:   679
 Number of Cholesky vectors:      9
 MP2 energy in ED [au]:          -0.062980793515
 Number of occupied LNOs:        11 (100.00%)
 Number of virtual  LNOs:        68  (10.01%)
 tol*100>norm                    22  4.475191944554664E-004
 tol*100>norm                    76  4.475191921284932E-004
 Number of Cholesky vectors:      6
 MP2 energy in LIS [au]:         -0.062953275019
 Correction for frozen LNO [au]: -0.000027518496     (0.044%)
 Number of NAFs:                244   (9.26%)
 CPU time [min]:    86.091                   Wall time [min]:     4.702
 

 Direct DF-CCSD(T) calculation
 
 Convergence criterion:  1.0E-05
 
 Number of occupied/virtual/auxiliary orbitals:    11    68   244
    100.75 MB is the minimal memory requirement for (T)
     75.85 MB is the minimal memory requirement for CCSD
 
 MP2 correlation energy [au]:       -0.640343215792
 
 LMP2 domain correlation energy contribution [au]:       -0.062966395841
 
 CPU time [min]:    86.124                   Wall time [min]:     4.703
 
 
 Starting CCSD iterations...
 
                     Residual norm       Correlation Energy
 Iteration  1        0.186067357209       -0.568420937359
 Iteration  2        0.057968358050       -0.588084479508
 Iteration  3        0.017737744173       -0.591413400552
 Iteration  4        0.007364497240       -0.590517552559
 Iteration  5        0.003999055347       -0.590440191917
 Iteration  6        0.002075458165       -0.590698958465
 Iteration  7        0.000988944303       -0.590699801746
 Iteration  8        0.000345348893       -0.590664954937
 Iteration  9        0.000145243308       -0.590668686915
 Iteration 10        0.000046762672       -0.590670095577
 
 CCSD iteration has converged in 10 steps.
      153.99 MB memory was utilized by CCSD
 
 T1 diagnostic:      2.150E-02            D1 diagnostic:      6.583E-02
 
 T1 contribution [au]:                         0.000000000000
 CCSD correlation energy [au]:                -0.057634038914
 
 CPU time [min]:    86.809                   Wall time [min]:     4.740
 
 Calculation of (T) correction...
 
 Laplace threshold, nquadmin:  1.00E-03   4
 Number of quadrature points:    4
 
      116.45 MB memory is utilized for (T)

 0%       25%       50%       75%       100%
 |---------|---------|---------|---------| 
 
 (T) correction [au]:                   -0.002014012007
 CCSD(T) correlation energy [au]:       -0.059648050921
 
 CPU time [min]:    87.050                   Wall time [min]:     4.754
 
 MO:    10
 Number of atoms in domain:      32
 Number of atomic orbitals:     698
 Number of atoms for local DF:   32
 Number of fitting functions:  2636 (100.00%)
 Number of occupied orbitals:    11
 Number of virtual  orbitals:   679
 Number of Cholesky vectors:      9
 MP2 energy in ED [au]:          -0.062980791210
 Number of occupied LNOs:        11 (100.00%)
 Number of virtual  LNOs:        68  (10.01%)
 tol*100>norm                    22  4.475191944554668E-004
 tol*100>norm                    76  4.475191921284937E-004
 Number of Cholesky vectors:      6
 MP2 energy in LIS [au]:         -0.062953272768
 Correction for frozen LNO [au]: -0.000027518441     (0.044%)
 Number of NAFs:                244   (9.26%)
 CPU time [min]:    95.870                   Wall time [min]:     5.233
 

 Direct DF-CCSD(T) calculation
 
 Convergence criterion:  1.0E-05
 
 Number of occupied/virtual/auxiliary orbitals:    11    68   244
    100.75 MB is the minimal memory requirement for (T)
     75.85 MB is the minimal memory requirement for CCSD
 
 MP2 correlation energy [au]:       -0.640342987530
 
 LMP2 domain correlation energy contribution [au]:       -0.062966374053
 
 CPU time [min]:    95.904                   Wall time [min]:     5.234
 
 
 Starting CCSD iterations...
 
                     Residual norm       Correlation Energy
 Iteration  1        0.186067298568       -0.568420765229
 Iteration  2        0.057968325352       -0.588084277801
 Iteration  3        0.017737751310       -0.591413209281
 Iteration  4        0.007364445577       -0.590517352900
 Iteration  5        0.003999008043       -0.590440002592
 Iteration  6        0.002075428500       -0.590698766124
 Iteration  7        0.000988933978       -0.590699608495
 Iteration  8        0.000345346519       -0.590664760194
 Iteration  9        0.000145241785       -0.590668493182
 Iteration 10        0.000046762078       -0.590669901821
 
 CCSD iteration has converged in 10 steps.
      153.99 MB memory was utilized by CCSD
 
 T1 diagnostic:      2.150E-02            D1 diagnostic:      6.583E-02
 
 T1 contribution [au]:                         0.000000000000
 CCSD correlation energy [au]:                -0.057634036955
 
 CPU time [min]:    96.408                   Wall time [min]:     5.261
 
 Calculation of (T) correction...
 
 Laplace threshold, nquadmin:  1.00E-03   4
 Number of quadrature points:    4
 
      116.45 MB memory is utilized for (T)

 0%       25%       50%       75%       100%
 |---------|---------|---------|---------| 
 
 (T) correction [au]:                   -0.002014012080
 CCSD(T) correlation energy [au]:       -0.059648049035
 
 CPU time [min]:    96.645                   Wall time [min]:     5.275
 
 MO:    11
 Number of atoms in domain:      32
 Number of atomic orbitals:     698
 Number of atoms for local DF:   32
 Number of fitting functions:  2636 (100.00%)
 Number of occupied orbitals:    11
 Number of virtual  orbitals:   679
 Number of Cholesky vectors:      9
 MP2 energy in ED [au]:          -0.078461968133
 Number of occupied LNOs:        11 (100.00%)
 Number of virtual  LNOs:       102  (15.02%)
 tol*100>norm                    22  4.475191944554665E-004
 tol*100>norm                    76  4.475191921284935E-004
 Number of Cholesky vectors:      6
 MP2 energy in LIS [au]:         -0.078438337409
 Correction for frozen LNO [au]: -0.000023630724     (0.030%)
 Number of NAFs:                319  (12.10%)
 CPU time [min]:   108.188                   Wall time [min]:     5.907
 

 Direct DF-CCSD(T) calculation
 
 Convergence criterion:  1.0E-05
 
 Number of occupied/virtual/auxiliary orbitals:    11   102   319
    213.42 MB is the minimal memory requirement for (T)
    119.73 MB is the minimal memory requirement for CCSD
 
 MP2 correlation energy [au]:       -0.708350155872
 
 LMP2 domain correlation energy contribution [au]:       -0.078447867160
 
 CPU time [min]:   108.232                   Wall time [min]:     5.909
 
 
 Starting CCSD iterations...
 
                     Residual norm       Correlation Energy
 Iteration  1        0.190713010495       -0.625438183567
 Iteration  2        0.059337367026       -0.645773252423
 Iteration  3        0.018009950903       -0.649848619719
 Iteration  4        0.008000651284       -0.648563738113
 Iteration  5        0.004193338481       -0.648272713244
 Iteration  6        0.002316739334       -0.648629251072
 Iteration  7        0.001134382967       -0.648709118917
 Iteration  8        0.000409935645       -0.648651069633
 Iteration  9        0.000174710475       -0.648646752027
 Iteration 10        0.000055127511       -0.648650350420
 
 CCSD iteration has converged in 10 steps.
      528.18 MB memory was utilized by CCSD
 
 T1 diagnostic:      2.145E-02            D1 diagnostic:      6.847E-02
 
 T1 contribution [au]:                         0.000000000000
 CCSD correlation energy [au]:                -0.072421935942
 
 CPU time [min]:   109.828                   Wall time [min]:     5.994
 
 Calculation of (T) correction...
 
 Laplace threshold, nquadmin:  1.00E-03   4
 Number of quadrature points:    4
 
      267.09 MB memory is utilized for (T)

 0%       25%       50%       75%       100%
 |---------|---------|---------|---------| 
 
 (T) correction [au]:                   -0.004445851009
 CCSD(T) correlation energy [au]:       -0.076867786951
 
 CPU time [min]:   110.716                   Wall time [min]:     6.046
 
 **********************************************************************
 Dimensions of the extended domains:    Minimum / Average / Maximum
 
 Number of atoms in domain:                  32      32.0        32
 Number of atomic orbitals:                 698     698.0       698
 Number of fitting functions:              2636    2636.0      2636
 Number of occupied localized MOs:           11      11.0        11
 Number of PAOs:                            679     679.0       679
 Number of occupied LNOs:                    11      11.0        11
 Number of virtual  LNOs:                    66      70.4       102
 Number of NAFs:                            238     248.3       319
 
 **********************************************************************
 Distant (and weak) pair contributions, corrections
 
 Sum of pair energies [au]:                     0.000000000000    (0.000%)
 Sum of energy corrections [au]:               -0.000326346989    (0.046%)
 Pair energies + LNO corrections [au]:         -0.000326346989
 Sum of LMP2 contributions [au]:               -0.708352021728
 
 **********************************************************************
  Time of manipulations in the EDs:      max CPU/Wall [s]  all CPU/Wall [min]
 
 PD construction & multipole pair E      29.64     1.64     0.49     0.03
 Construct MO basis of the ED             6.68     0.35     1.16     0.06
 (mu,nu|P) evaluation & trf 2 (ai|P)     77.14     3.86    13.82     0.69
 Evaluate MP2 energy of the ED           17.64     0.88     3.23     0.16
 Transformations to the LNO basis         8.83     0.44     1.58     0.08
 Build W_PQ (Jai or Jpi part)             4.51     1.04     0.80     0.13
 Evaluate MP2 energy of the LIS           0.51     0.03     0.05     0.00
 (mu,nu|P) evaluation & trf 2 J(abQ)    561.36    30.85    75.63     4.13
 Total of the above for all EDs         676.67    37.46    96.28     5.26
 
 **********************************************************************
 Maximum memory requirement [MB]:       
 
 PD construction & multipole pair E         94.6
 AO integral evaluation in the EDs         764.5
 (mu,nu|P) evaluation & trf 2 (aI|P)      1219.0
 Evaluate MP2 energy in the EDs            586.5
 Transformation to the LNO basis           194.4
 (mu,nu|P) to Jab transformation           915.4
 Evaluate MP2 energy in the LIS            298.9
 Minimum requirement for LIS CCSD          119.7
 Actually allocated  for LIS CCSD          528.2
 Minimum requirement for LIS (T)           213.4
 Actually allocated  for LIS (T)           267.1
 
 ======================================================================
 ======================================================================
 
 
 
 ======================================================================
 ======================================================================
 
 Final local CC results:
 
 Minimum number of correlated electrons:        22       (100.0%)
 Maximum number of correlated electrons:        22       (100.0%)
 Average number of correlated electrons:        22.0     (100.0%)
 Minimum number of correlated orbitals:         77       (  6.0%)
 Maximum number of correlated orbitals:        113       (  8.8%)
 Average number of correlated orbitals:         81.4     (  6.3%)
 
 CPU time for integral calculations [min]:                  8.283
 Wall time for integral calculations [min]:                 1.705
 
 CPU time for SCF calculation [min]:                      116.945
 Wall time for SCF calculation [min]:                       6.015
 
 CPU time for orbital localization [min]:                   0.132
 Wall time for orbital localization [min]:                  0.067
 
 CPU time for integral transformations [min]:             100.210
 Wall time for integral transformations [min]:              5.469
 
 Reference energy [au]:                                  -269.589462010470
 
 LMP2 correlation energy [au]:                             -0.708352021728
 Total LMP2 energy [au]:                                 -270.297814032197
 
 Total MP2 correction for dropped NAFs [au]:                0.000135999476
 Total MP2 correction [au]:                                -0.000190347513
 
 CPU time for CCSD calculations [min]:                      7.438
 Total CPU time for CCSD [min]:                           233.009
 Wall time for CCSD calculations [min]:                     0.398
 Total wall time for CCSD [min]:                           13.654
 
 CCSD correlation energy [au]:                             -0.648808651803
 Total CCSD energy [au]:                                 -270.238270662272
 CCSD correlation energy + 0.5 MP2 corrections [au]:       -0.648903825559
 Total LNO-CCSD energy with MP2 corrections [au]:        -270.238365836029
 
 CPU time for (T) corrections [min]:                        3.080
 Total CPU time for CCSD(T) [min]:                        236.089
 Wall time for (T) corrections [min]:                       0.179
 Total wall time for CCSD(T) [min]:                        13.833
 
 Total (T) correlation energy contribution [au]:           -0.024572913660
 Total (T) correlation energy+0.5 MP2 correction [au]:     -0.024668087417
 CCSD(T) correlation energy [au]:                          -0.673381565463
 Total CCSD(T) energy [au]:                              -270.262843575933
 CCSD(T) correlation energy + MP2 corrections [au]:        -0.673571912976
 Total LNO-CCSD(T) energy with MP2 corrections [au]:     -270.263033923445
 
 ======================================================================
 ======================================================================
 
 ************************ 2022-08-18 07:59:00 *************************
                      Normal termination of mrcc.
 **********************************************************************
