 vasp.6.4.1 05Apr23 (build May 06 2023 19:47:20) complex                        
  
 executed on             LinuxIFC date 2023.07.05  11:48:40
 running  768 mpi-ranks, with    1 threads/rank, on   48 nodes
 distrk:  each k-point on  768 cores,    1 groups
 distr:  one band on NCORE=  16 cores,   48 groups


--------------------------------------------------------------------------------------------------------


 INCAR:
   SYSTEM = MgO-rocksalt
   ISMEAR = 0
   SIGMA = 0.05
   EDIFF = 1E-6
   ALGO = ALL
   ISTART = 0
   IBRION = -1
   NSW = 0
   ISYM = 2
   DIPOL = 0.5 0.5 0.5
   IDIPOL = 3
   LDIPOL = .TRUE.
   LHFCALC = .TRUE.
   GGA = PE
   IVDW = 11
   VDW_S6 = 1.0
   VDW_SR = 1.287
   VDW_S8 = 0.928
   ENCUT = 520
   PREC = Accurate
   LASPH = .TRUE.
   LREAL = Auto
   ISPIN = 1
   NELM = 200
   NELMIN = 8
   NCORE = 16
   KPAR = 1
   LWAVE = .FALSE.
   LCHARG = .FALSE.

 POTCAR:    PAW_PBE Ag 02Apr2005                  
 -----------------------------------------------------------------------------
|                                                                             |
|           W    W    AA    RRRRR   N    N  II  N    N   GGGG   !!!           |
|           W    W   A  A   R    R  NN   N  II  NN   N  G    G  !!!           |
|           W    W  A    A  R    R  N N  N  II  N N  N  G       !!!           |
|           W WW W  AAAAAA  RRRRR   N  N N  II  N  N N  G  GGG   !            |
|           WW  WW  A    A  R   R   N   NN  II  N   NN  G    G                |
|           W    W  A    A  R    R  N    N  II  N    N   GGGG   !!!           |
|                                                                             |
|     You have selected ISYM=2 for a HF type calculation. This will           |
|     symmetrize the charge density but not the exchange potential. I         |
|     suggest to use ISYM=3 instead. This uses symmetry to obtain the         |
|     orbitals at all k-points in the Brillouin zone, but does not apply      |
|     symmetry to the Hartree potential directly. The resultant charge        |
|     might have lower symmetry than the crystal but, at least, Hartree       |
|     and exchange are fully compatible.                                      |
|                                                                             |
 -----------------------------------------------------------------------------

 POTCAR:    PAW_PBE Ag 02Apr2005                  
   SHA256 =  6550cfa3543261e132c169e1b98a529204624d72be14e2da2e0242bcb74a174d Ag/POTCAR             
   COPYR  = (c) Copyright 02Apr2005 Georg Kresse                                                    
   COPYR  = This file is part of the software VASP. Any use, copying, and all other rights are regul
   COPYR  = If you do not have a valid VASP license, you may not use, copy or distribute this file. 
   VRHFIN =Ag : s1 d10                                                                              
   LEXCH  = PE                                                                                      
   EATOM  =  1037.2675 eV,   76.2370 Ry                                                             
                                                                                                    
   TITEL  = PAW_PBE Ag 02Apr2005                                                                    
   LULTRA =        F    use ultrasoft PP ?                                                          
   IUNSCR =        1    unscreen: 0-lin 1-nonlin 2-no                                               
   RPACOR =    2.000    partial core radius                                                         
   POMASS =  107.868; ZVAL   =   11.000    mass and valenz                                          
   RCORE  =    2.500    outmost cutoff radius                                                       
   RWIGS  =    2.840; RWIGS  =    1.503    wigner-seitz radius (au A)                               
   ENMAX  =  249.844; ENMIN  =  187.383 eV                                                          
   ICORE  =        3    local potential                                                             
   LCOR   =        T    correct aug charges                                                         
   LPAW   =        T    paw PP                                                                      
   EAUG   =  412.496                                                                                
   DEXC   =    0.000                                                                                
   RMAX   =    2.560    core radius for proj-oper                                                   
   RAUG   =    1.300    factor for augmentation sphere                                              
   RDEP   =    2.576    radius for radial grids                                                     
   RDEPT  =    2.072    core radius for aug-charge                                                  
                                                                                                    
   Atomic configuration                                                                             
   12 entries                                                                                       
     n  l   j            E        occ.                                                              
     1  0  0.50    -25324.9161   2.0000                                                             
     2  0  0.50     -3728.5341   2.0000                                                             
     2  1  1.50     -3344.0404   6.0000                                                             
     3  0  0.50      -683.5581   2.0000                                                             
     3  1  1.50      -557.3225   6.0000                                                             
     3  2  2.50      -358.3853  10.0000                                                             
     4  0  0.50       -95.0341   2.0000                                                             
     4  1  1.50       -58.5511   6.0000                                                             
     4  2  2.50        -7.4440  10.0000                                                             
     5  0  0.50        -4.4045   1.0000                                                             
     5  1  0.50        -1.3606   0.0000                                                             
     4  3  2.50        -1.3606   0.0000                                                             
   Description                                                                                      
     l       E           TYP  RCUT    TYP  RCUT                                                     
     2     -7.4439781     23  2.400                                                                 
     2     -8.8045607     23  2.400                                                                 
     0     -4.4044681     23  2.400                                                                 
     0      1.9520038     23  2.400                                                                 
     1     -1.3605826     23  2.500                                                                 
     1     27.2116520     23  2.500                                                                 
     3     -4.0817478     23  2.400                                                                 
  local pseudopotential read in
  partial core-charges read in
  partial kinetic energy density read in
  atomic valenz-charges read in
  non local Contribution for L=           2  read in
    real space projection operators read in
  non local Contribution for L=           2  read in
    real space projection operators read in
  non local Contribution for L=           0  read in
    real space projection operators read in
  non local Contribution for L=           0  read in
    real space projection operators read in
  non local Contribution for L=           1  read in
    real space projection operators read in
  non local Contribution for L=           1  read in
    real space projection operators read in
    PAW grid and wavefunctions read in
 
   number of l-projection  operators is LMAX  =           6
   number of lm-projection operators is LMMAX =          18
 
 -----------------------------------------------------------------------------
|                                                                             |
|               ----> ADVICE to this user running VASP <----                  |
|                                                                             |
|     You have a (more or less) 'small supercell' and for smaller cells       |
|     it is recommended to use the reciprocal-space projection scheme!        |
|     The real-space optimization is not efficient for small cells and it     |
|     is also less accurate ...                                               |
|     Therefore, set LREAL=.FALSE. in the INCAR file.                         |
|                                                                             |
 -----------------------------------------------------------------------------

 Optimization of the real space projectors (new method)

 maximal supplied QI-value         = 15.12
 optimisation between [QCUT,QGAM] = [ 11.64, 23.28] = [ 37.95,151.78] Ry 
 Optimized for a Real-space Cutoff    1.45 Angstroem

   l    n(q)    QCUT    max X(q) W(low)/X(q) W(high)/X(q)  e(spline) 
   2      9    11.641    53.897    0.22E-03    0.42E-04    0.28E-06
   2      9    11.641    52.416    0.23E-03    0.44E-04    0.29E-06
   0     10    11.641   122.045    0.51E-04    0.25E-04    0.16E-06
   0     10    11.641    73.629    0.49E-04    0.24E-04    0.16E-06
   1     10    11.641    15.255    0.99E-04    0.55E-04    0.11E-06
   1     10    11.641     9.562    0.81E-04    0.47E-04    0.95E-07
  PAW_PBE Ag 02Apr2005                  :
 energy of atom  1       EATOM=-1037.2675
 kinetic energy error for atom=    0.0047 (will be added to EATOM!!)
 
 
 POSCAR: Ag Mg  O
  positions in direct lattice
  No initial velocities read in
 exchange correlation table for  LEXCH =        8
   RHO(1)=    0.500       N(1)  =     2000
   RHO(2)=  100.500       N(2)  =     4000
 


--------------------------------------------------------------------------------------------------------


 ion  position               nearest neighbor table
   1  0.400  0.563  0.612-   4 2.67   3 2.71
   2  0.400  0.500  0.835-   3 2.58
   3  0.400  0.499  0.718-   2 2.58   1 2.71   4 2.71
   4  0.400  0.436  0.612-   1 2.67   3 2.71
 
  LATTYP: Found a simple tetragonal cell.
 ALAT       =    21.1388521970
 C/A-ratio  =     1.0461251639
  
  Lattice vectors:
  
 A1 = (  21.1388521970,   0.0000000000,   0.0000000000)
 A2 = (   0.0000000000,  21.1388521970,   0.0000000000)
 A3 = (   0.0000000000,   0.0000000000,  22.1138852197)


Analysis of symmetry for initial positions (statically):
=====================================================================
 Subroutine PRICEL returns:
 Original cell was already a primitive cell.
 

 Routine SETGRP: Setting up the symmetry group for a 
 simple tetragonal supercell.


 Subroutine GETGRP returns: Found  1 space group operations
 (whereof  1 operations were pure point group operations)
 out of a pool of 16 trial point group operations.


The static configuration has the point symmetry C_1 .


Analysis of symmetry for dynamics (positions and initial velocities):
=====================================================================
 Subroutine PRICEL returns:
 Original cell was already a primitive cell.
 

 Routine SETGRP: Setting up the symmetry group for a 
 simple tetragonal supercell.


 Subroutine GETGRP returns: Found  1 space group operations
 (whereof  1 operations were pure point group operations)
 out of a pool of 16 trial point group operations.


The dynamic configuration has the point symmetry C_1 .


Analysis of constrained symmetry for selective dynamics:
=====================================================================
 Subroutine PRICEL returns:
 Original cell was already a primitive cell.
 

 Routine SETGRP: Setting up the symmetry group for a 
 simple tetragonal supercell.


 Subroutine GETGRP returns: Found  1 space group operations
 (whereof  1 operations were pure point group operations)
 out of a pool of 16 trial point group operations.


The constrained configuration has the point symmetry C_1 .


 Subroutine INISYM returns: Found  1 space group operations
 (whereof  1 operations are pure point group operations),
 and found     1 'primitive' translations


----------------------------------------------------------------------------------------

                                     Primitive cell                                     

  volume of cell :    9881.6133

  direct lattice vectors                    reciprocal lattice vectors
    21.138852197  0.000000000  0.000000000     0.047306258  0.000000000  0.000000000
     0.000000000 21.138852197  0.000000000     0.000000000  0.047306258  0.000000000
     0.000000000  0.000000000 22.113885220     0.000000000  0.000000000  0.045220457

  length of vectors
    21.138852197 21.138852197 22.113885220     0.047306258  0.047306258  0.045220457

  position of ions in fractional coordinates (direct lattice)
     0.400262498  0.562644202  0.611757253
     0.400180406  0.499857897  0.835303009
     0.400101799  0.499467099  0.718499130
     0.400198249  0.436299472  0.611663944

  ion indices of the primitive-cell ions
   primitive index   ion index
                 1           1
                 2           2
                 3           3
                 4           4

----------------------------------------------------------------------------------------

 
 
 KPOINTS: KPOINTS created by Atomic Simulation Env

Automatic generation of k-mesh.
 Grid dimensions read from file:
 generate k-points for:    1    1    1

 Generating k-lattice:

  Cartesian coordinates                     Fractional coordinates (reciprocal lattice)
     0.047306258  0.000000000  0.000000000     1.000000000  0.000000000  0.000000000
     0.000000000  0.047306258  0.000000000     0.000000000  1.000000000  0.000000000
     0.000000000  0.000000000  0.045220457     0.000000000  0.000000000  1.000000000

  Length of vectors
     0.047306258  0.047306258  0.045220457

  Shift w.r.t. Gamma in fractional coordinates (k-lattice)
     0.000000000  0.000000000  0.000000000

 
 Subroutine IBZKPT returns following result:
 ===========================================
 
 Found      1 irreducible k-points:
 
 Following reciprocal coordinates:
            Coordinates               Weight
  0.000000  0.000000  0.000000      1.000000
 
 Following cartesian coordinates:
            Coordinates               Weight
  0.000000  0.000000  0.000000      1.000000
 
 
 Subroutine IBZKPT_HF returns following result:
 ==============================================
 
 Found      1 k-points in 1st BZ
 the following      1 k-points will be used (e.g. in the exchange kernel)
 Following reciprocal coordinates:   # in IRBZ
  0.000000  0.000000  0.000000    1.00000000   1 t-inv F


--------------------------------------------------------------------------------------------------------




 Dimension of arrays:
   k-points           NKPTS =      1   k-points in BZ     NKDIM =      1   number of bands    NBANDS=     48
   number of dos      NEDOS =    301   number of ions     NIONS =      4
   non local maximal  LDIM  =      6   non local SUM 2l+1 LMDIM =     18
   total plane-waves  NPLWV = ******
   max r-space proj   IRMAX =   5559   max aug-charges    IRDMAX=  21597
   dimension x,y,z NGX =   160 NGY =  160 NGZ =  168
   dimension x,y,z NGXF=   320 NGYF=  320 NGZF=  336
   support grid    NGXF=   320 NGYF=  320 NGZF=  336
   ions per type =               4
   NGX,Y,Z   is equivalent  to a cutoff of  12.58, 12.58, 12.63 a.u.
   NGXF,Y,Z  is equivalent  to a cutoff of  25.17, 25.17, 25.26 a.u.

 SYSTEM =  MgO-rocksalt                            
 POSCAR =  Ag Mg  O                                

 Startparameter for this run:
   NWRITE =      2    write-flag & timer
   PREC   = accura    normal or accurate (medium, high low for compatibility)
   ISTART =      0    job   : 0-new  1-cont  2-samecut
   ICHARG =      2    charge: 1-file 2-atom 10-const
   ISPIN  =      1    spin polarized calculation?
   LNONCOLLINEAR =      F non collinear calculations
   LSORBIT =      F    spin-orbit coupling
   INIWAV =      1    electr: 0-lowe 1-rand  2-diag
   LASPH  =      T    aspherical Exc in radial PAW
 Electronic Relaxation 1
   ENCUT  =  520.0 eV  38.22 Ry    6.18 a.u.  39.30 39.30 41.12*2*pi/ulx,y,z
   ENINI  =  520.0     initial cutoff
   ENAUG  =  412.5 eV  augmentation charge cutoff
   NELM   =    200;   NELMIN=  8; NELMDL= -5     # of ELM steps 
   EDIFF  = 0.1E-05   stopping-criterion for ELM
   LREAL  =      T    real-space projection
   NLSPLINE    = F    spline interpolate recip. space projectors
   LCOMPAT=      F    compatible to vasp.4.4
   GGA_COMPAT  = T    GGA compatible to vasp.4.4-vasp.4.6
   LMAXPAW     = -100 max onsite density
   LMAXMIX     =    2 max onsite mixed and CHGCAR
   VOSKOWN=      0    Vosko Wilk Nusair interpolation
   ROPT   =   -0.00025
 Ionic relaxation
   EDIFFG = 0.1E-04   stopping-criterion for IOM
   NSW    =      0    number of steps for IOM
   NBLOCK =      1;   KBLOCK =      1    inner block; outer block 
   IBRION =     -1    ionic relax: 0-MD 1-quasi-New 2-CG
   NFREE  =      0    steps in history (QN), initial steepest desc. (CG)
   ISIF   =      0    stress and relaxation
   IWAVPR =     10    prediction:  0-non 1-charg 2-wave 3-comb
   ISYM   =      2    0-nonsym 1-usesym 2-fastsym
   LCORR  =      T    Harris-Foulkes like correction to forces

   POTIM  = 0.5000    time-step for ionic-motion
   TEIN   =    0.0    initial temperature
   TEBEG  =    0.0;   TEEND  =   0.0 temperature during run
   SMASS  =  -3.00    Nose mass-parameter (am)
   estimated Nose-frequenzy (Omega)   =  0.10E-29 period in steps = 0.13E+47 mass=  -0.102E-25a.u.
   SCALEE = 1.0000    scale energy and forces
   NPACO  =    256;   APACO  = 10.0  distance and # of slots for P.C.
   PSTRESS=    0.0 pullay stress

  Mass of Ions in am
   POMASS = 107.87
  Ionic Valenz
   ZVAL   =  11.00
  Atomic Wigner-Seitz radii
   RWIGS  =  -1.00
  virtual crystal weights 
   VCA    =   1.00
   NELECT =      44.0000    total number of electrons
   NUPDOWN=      -1.0000    fix difference up-down

 DOS related values:
   EMIN   =  10.00;   EMAX   =-10.00  energy-range for DOS
   EFERMI =   0.00;   METHOD = LEGACY      
   ISMEAR =     0;   SIGMA  =   0.05  broadening in eV -4-tet -1-fermi 0-gaus

 Electronic relaxation 2 (details)
   IALGO  =     58    algorithm
   LDIAG  =      T    sub-space diagonalisation (order eigenvalues)
   LSUBROT=      F    optimize rotation matrix (better conditioning)
   TURBO    =      0    0=normal 1=particle mesh
   IRESTART =      0    0=no restart 2=restart with 2 vectors
   NREBOOT  =      0    no. of reboots
   NMIN     =      0    reboot dimension
   EREF     =   0.00    reference energy to select bands
   IMIX   =      4    mixing-type and parameters
     AMIX     =   0.40;   BMIX     =  1.00
     AMIX_MAG =   1.60;   BMIX_MAG =  1.00
     AMIN     =   0.10
     WC   =   100.;   INIMIX=   1;  MIXPRE=   1;  MAXMIX= -45

 Intra band minimization:
   WEIMIN = 0.0000     energy-eigenvalue tresh-hold
   EBREAK =  0.52E-08  absolut break condition
   DEPER  =   0.30     relativ break condition  

   TIME   =   0.40     timestep for ELM

  volume/ion in A,a.u.               =    2470.40     16671.10
  Fermi-wavevector in a.u.,A,eV,Ry     =   0.269329  0.508958  0.986941  0.072538
  Thomas-Fermi vector in A             =   1.106612
 
 Write flags
   LWAVE        =      F    write WAVECAR
   LDOWNSAMPLE  =      F    k-point downsampling of WAVECAR
   LCHARG       =      F    write CHGCAR
   LVTOT        =      F    write LOCPOT, total local potential
   LVHAR        =      F    write LOCPOT, Hartree potential only
   LELF         =      F    write electronic localiz. function (ELF)
   LORBIT       =      0    0 simple, 1 ext, 2 COOP (PROOUT), +10 PAW based schemes


 Dipole corrections
   LMONO  =      F    monopole corrections only (constant potential shift)
   LDIPOL =      T    correct potential (dipole corrections)
   IDIPOL =      3    1-x, 2-y, 3-z, 4-all directions 
   EPSILON=  1.0000000 bulk dielectric constant

 Exchange correlation treatment:
   GGA     =    PE    GGA type
   LEXCH   =     8    internal setting for exchange type
   LIBXC   =     F    Libxc                    
   VOSKOWN =     0    Vosko Wilk Nusair interpolation
   EXXOEP  =     0    0=HF, 1=EXX-LHF (local Hartree Fock) 2=EXX OEP
   LHFCALC =     T    Hartree Fock is set to
   LSYMGRAD=     F    symmetrize gradient (conserves proper symmetry)
   PRECFOCK=normal    Normal, Fast or Accurate (Low or Medium for compatibility)
   LRHFCALC=     F    long range Hartree Fock
   LRSCOR  =     F    long range correlation only (use DFT for short range part)
   LTHOMAS =     F    Thomas Fermi screening in HF
   LMODELHF=     F    short range full HF, long range fraction AEXX
   FOCKCORR=     1    mode to apply convergence corrections
   LFOCKACE=     T    use Adeptively-Compressed-Exchange operator
   ENCUT4O =  -1.0   cutoff for four orbital integrals eV
   LMAXFOCK=     4    L truncation for augmentation on plane wave grid
   LMAXFOCKAE=  -1    L truncation for all-electron charge restoration on plane wave grid
   NMAXFOCKAE=   1    number of basis functions for all-electron charge restoration
   LFOCKAEDFT=     F  apply the AE augmentation even for DFT
   NKREDX  =     1    reduce k-point grid by
   NKREDY  =     1    reduce k-point grid by
   NKREDZ  =     1    reduce k-point grid by
   SHIFTRED=     F    shift reduced grid of Gamma
   HFKIDENT=     F    idential grid for each k-point
   ODDONLY =     F    use only odd q-grid points
   EVENONLY=     F    use only even q-grid points
   HFALPHA =   -1.0000 decay constant for conv. correction
   MCALPHA =    0.0000 extent of test-charge in conv. correction in multipole expansion
   AEXX    =    0.2500 exact exchange contribution
   HFSCREEN=    0.0000 screening length (either q_TF or 0.3 A-1)
   HFSCREENC=   0.0000 screening length for correlation (either q_TF or 0.3 A-1)
   HFRCUT  =    0.0000 spherical cutoff for potential kernel
   ALDAX   =    0.7500 LDA exchange part
   AGGAX   =    0.7500 GGA exchange part
   ALDAC   =    1.0000 LDA correlation
   AGGAC   =    1.0000 GGA correlation
   ENCUTFOCK=  -1.0 apply spherical cutoff to Coloumb kernel
   NBANDSGWLOW=     1    first orbital included in HF term
   NBLOCK_FOCK=    64    blocking factor in FOCK_ACC

 Linear response parameters
   LEPSILON=     F    determine dielectric tensor
   LRPA    =     F    only Hartree local field effects (RPA)
   LNABLA  =     F    use nabla operator in PAW spheres
   LVEL    =     F    velocity operator in full k-point grid
   CSHIFT  =0.1000    complex shift for real part using Kramers Kronig
   OMEGAMAX=  -1.0    maximum frequency
   DEG_THRESHOLD= 0.2000000E-02 threshold for treating states as degnerate
   RTIME   =   -0.100 relaxation time in fs
  (WPLASMAI=    0.000 imaginary part of plasma frequency in eV, 0.658/RTIME)
   DFIELD  = 0.0000000 0.0000000 0.0000000 field for delta impulse in time
 
  Optional k-point grid parameters
   LKPOINTS_OPT  =     F    use optional k-point grid
   KPOINTS_OPT_MODE=     1    mode for optional k-point grid
 
 Orbital magnetization related:
   ORBITALMAG=     F  switch on orbital magnetization
   LCHIMAG   =     F  perturbation theory with respect to B field
   DQ        =  0.001000  dq finite difference perturbation B field
   LLRAUG    =     F  two centre corrections for induced B field
   LBONE     =     F  B-component reconstruction in AE one-centre
   LVGVCALC  =     T  calculate vGv susceptibility
   LVGVAPPL  =     F  apply vGv susceptibility instead of pGv for G=0

 Random number generation:
   RANDOM_GENERATOR = DEFAULT
   PCG_SEED         = not used


--------------------------------------------------------------------------------------------------------


 Static calculation
 charge density and potential will be updated during run
 non-spin polarized calculation
 Conjugate gradient for all bands (Freysoldt, et al. PRB 79, 241103 (2009))
 preconditioned conjugated gradient                                        
 perform sub-space diagonalisation
    before iterative eigenvector-optimisation
 modified Broyden-mixing scheme, WC =      100.0
 initial mixing is a Kerker type mixing with AMIX =  0.4000 and BMIX =      1.0000
 Hartree-type preconditioning will be used
 using additional bands           26
 real space projection scheme for non local part
 use partial core corrections
 no Harris-corrections to forces 
 use gradient corrections 
 use of overlap-Matrix (Vanderbilt PP)
 Gauss-broadening in eV      SIGMA  =   0.05


--------------------------------------------------------------------------------------------------------


  energy-cutoff  :      520.00
  volume of cell :     9881.61
      direct lattice vectors                 reciprocal lattice vectors
    21.138852197  0.000000000  0.000000000     0.047306258  0.000000000  0.000000000
     0.000000000 21.138852197  0.000000000     0.000000000  0.047306258  0.000000000
     0.000000000  0.000000000 22.113885220     0.000000000  0.000000000  0.045220457

  length of vectors
    21.138852197 21.138852197 22.113885220     0.047306258  0.047306258  0.045220457


 
 k-points in units of 2pi/SCALE and weight: KPOINTS created by Atomic Simulation Env
   0.00000000  0.00000000  0.00000000       1.000
 
 k-points in reciprocal lattice and weights: KPOINTS created by Atomic Simulation Env
   0.00000000  0.00000000  0.00000000       1.000
 
 position of ions in fractional coordinates (direct lattice) 
   0.40026250  0.56264420  0.61175725
   0.40018041  0.49985790  0.83530301
   0.40010180  0.49946710  0.71849913
   0.40019825  0.43629947  0.61166394
 
 position of ions in cartesian coordinates  (Angst):
   8.46108979 11.89365263 13.52832968
   8.45935445 10.56642220 18.47179487
   8.45769279 10.55816119 15.88880730
   8.45973163  9.22287004 13.52626625
 


--------------------------------------------------------------------------------------------------------


 k-point   1 :   0.0000 0.0000 0.0000  plane waves:  265979

 maximum and minimum number of plane-waves per node :     16635    16606

 maximum number of plane-waves:    265979
 maximum index in each direction: 
   IXMAX=   39   IYMAX=   39   IZMAX=   41
   IXMIN=  -39   IYMIN=  -39   IZMIN=  -41


 real space projection operators:
  total allocation   :       2999.81 KBytes
  max/ min on nodes  :        206.72        162.84


 parallel 3D FFT for wavefunctions:
    minimum data exchange during FFTs selected (reduces bandwidth)
 parallel 3D FFT for charge:
    minimum data exchange during FFTs selected (reduces bandwidth)


 FFT grid for exact exchange (Hartree Fock) 
  NGX =120; NGY =120; NGZ =126

 
 Radii for the augmentation spheres in the non-local exchange
 for species   1 augmentation radius   1.406 (default was   1.125)
       energy cutoff for augmentation   2080.0

 real space projection operators:
  total allocation   :       1661.91 KBytes
  max/ min on nodes  :        155.86          0.20

 Maximum index for augmentation-charges in exchange          201
  SETUP_FOCK is finished

 total amount of memory used by VASP MPI-rank0    66196. kBytes
=======================================================================

   base      :      30000. kBytes
   nonlr-proj:        970. kBytes
   fftplans  :      18387. kBytes
   grid      :      15959. kBytes
   one-center:         15. kBytes
   HF        :         64. kBytes
   wavefun   :        801. kBytes
 
     INWAV:  cpu time      0.0004: real time      0.0005
 Broyden mixing: mesh for mixing (old mesh)
   NGX = 79   NGY = 79   NGZ = 83
  (NGX  =320   NGY  =320   NGZ  =336)
  gives a total of 518003 points

 initial charge density was supplied:
 charge density of overlapping atoms calculated
 number of electron      44.0000000 magnetization 
 keeping initial charge density in first step


--------------------------------------------------------------------------------------------------------


 Maximum index for non-local projection operator          369
 Maximum index for augmentation-charges            0 (set IRDMAX)


--------------------------------------------------------------------------------------------------------


    FEWALD:  cpu time      0.0018: real time      0.0018


--------------------------------------- Ionic step        1  -------------------------------------------




--------------------------------------- Iteration      1(   1)  ---------------------------------------


    POTLOK:  cpu time      0.3513: real time      0.3577
    SETDIJ:  cpu time      0.7512: real time      0.7519
    TRIAL :  cpu time      0.2450: real time      0.3107
    CORREC:  cpu time      0.0022: real time      0.0022
    --------------------------------------------
      LOOP:  cpu time      1.3514: real time      1.4250

 eigenvalue-minimisations  :    96
 total energy-change (2. order) :-0.3418819E+04  (-0.6789355E+03)
 number of electron      44.0000000 magnetization 
 augmentation part       44.0000000 magnetization 

 DIPCOR: dipole corrections for dipol
 direction  3 min pos     1,
 dipolmoment           0.000000      0.000000     -0.017667 electrons x Angstroem
 Tr[quadrupol]     -7475.678642

 energy correction for charged system         0.000000 eV
 dipol+quadrupol energy correction           -0.000003 eV
 added-field ion interaction          0.066095 eV  (added to PSCEN)


 Free energy of the ion-electron system (eV)
  ---------------------------------------------------
  alpha Z        PSCENC =         1.44332138
  Ewald energy   TEWEN  =      1478.23520240
  -Hartree energ DENC   =     -5440.47219134
  -exchange      EXHF   =         0.00000000
  -V(xc)+E(xc)   XCENC  =       -46.79221567
  PAW double counting   =      4013.84859731    -7576.52717041
  entropy T*S    EENTRO =        -0.01529118
  eigenvalues    EBANDS =         7.67799739
  atomic energy  EATOM  =      4143.78307380
  ---------------------------------------------------
  free energy    TOTEN  =     -3418.81867632 eV

  energy without entropy =    -3418.80338514  energy(sigma->0) =    -3418.81103073
  exchange ACFDT corr.  =         0.00000000  see jH, gK, PRB 81, 115126


--------------------------------------------------------------------------------------------------------




--------------------------------------- Iteration      1(   2)  ---------------------------------------


    TRIAL :  cpu time      0.3708: real time      0.3724
    CORREC:  cpu time      0.0007: real time      0.0007
    --------------------------------------------
      LOOP:  cpu time      0.3832: real time      0.3850

 eigenvalue-minimisations  :   192
 total energy-change (2. order) :-0.4064472E+03  (-0.4063006E+03)
 number of electron      44.0000000 magnetization 
 augmentation part       44.0000000 magnetization 

 DIPCOR: dipole corrections for dipol
 direction  3 min pos     1,
 dipolmoment           0.000000      0.000000     -0.017667 electrons x Angstroem
 Tr[quadrupol]     -7475.678642

 energy correction for charged system         0.000000 eV
 dipol+quadrupol energy correction           -0.000003 eV
 added-field ion interaction          0.066095 eV  (added to PSCEN)


 Free energy of the ion-electron system (eV)
  ---------------------------------------------------
  alpha Z        PSCENC =         1.44332138
  Ewald energy   TEWEN  =      1478.23520240
  -Hartree energ DENC   =     -5440.47219134
  -exchange      EXHF   =         0.00000000
  -V(xc)+E(xc)   XCENC  =       -46.79221567
  PAW double counting   =      4013.84859731    -7576.52717041
  entropy T*S    EENTRO =        -0.00000000
  eigenvalues    EBANDS =      -398.78444582
  atomic energy  EATOM  =      4143.78307380
  ---------------------------------------------------
  free energy    TOTEN  =     -3825.26582835 eV

  energy without entropy =    -3825.26582835  energy(sigma->0) =    -3825.26582835
  exchange ACFDT corr.  =         0.00000000  see jH, gK, PRB 81, 115126


--------------------------------------------------------------------------------------------------------




--------------------------------------- Iteration      1(   3)  ---------------------------------------


    TRIAL :  cpu time      0.1502: real time      0.1501
    CORREC:  cpu time      0.0008: real time      0.0009
    --------------------------------------------
      LOOP:  cpu time      0.1530: real time      0.1625

 eigenvalue-minimisations  :    96
 total energy-change (2. order) :-0.6687458E+02  (-0.6687438E+02)
 number of electron      44.0000000 magnetization 
 augmentation part       44.0000000 magnetization 

 DIPCOR: dipole corrections for dipol
 direction  3 min pos     1,
 dipolmoment           0.000000      0.000000     -0.017667 electrons x Angstroem
 Tr[quadrupol]     -7475.678642

 energy correction for charged system         0.000000 eV
 dipol+quadrupol energy correction           -0.000003 eV
 added-field ion interaction          0.066095 eV  (added to PSCEN)


 Free energy of the ion-electron system (eV)
  ---------------------------------------------------
  alpha Z        PSCENC =         1.44332138
  Ewald energy   TEWEN  =      1478.23520240
  -Hartree energ DENC   =     -5440.47219134
  -exchange      EXHF   =         0.00000000
  -V(xc)+E(xc)   XCENC  =       -46.79221567
  PAW double counting   =      4013.84859731    -7576.52717041
  entropy T*S    EENTRO =        -0.00000000
  eigenvalues    EBANDS =      -465.65902350
  atomic energy  EATOM  =      4143.78307380
  ---------------------------------------------------
  free energy    TOTEN  =     -3892.14040603 eV

  energy without entropy =    -3892.14040603  energy(sigma->0) =    -3892.14040603
  exchange ACFDT corr.  =         0.00000000  see jH, gK, PRB 81, 115126


--------------------------------------------------------------------------------------------------------




--------------------------------------- Iteration      1(   4)  ---------------------------------------


    TRIAL :  cpu time      0.3561: real time      0.3567
    CORREC:  cpu time      0.0007: real time      0.0007
    --------------------------------------------
      LOOP:  cpu time      0.3593: real time      0.3679

 eigenvalue-minimisations  :   192
 total energy-change (2. order) :-0.4436498E+00  (-0.4436494E+00)
 number of electron      44.0000000 magnetization 
 augmentation part       44.0000000 magnetization 

 DIPCOR: dipole corrections for dipol
 direction  3 min pos     1,
 dipolmoment           0.000000      0.000000     -0.017667 electrons x Angstroem
 Tr[quadrupol]     -7475.678642

 energy correction for charged system         0.000000 eV
 dipol+quadrupol energy correction           -0.000003 eV
 added-field ion interaction          0.066095 eV  (added to PSCEN)


 Free energy of the ion-electron system (eV)
  ---------------------------------------------------
  alpha Z        PSCENC =         1.44332138
  Ewald energy   TEWEN  =      1478.23520240
  -Hartree energ DENC   =     -5440.47219134
  -exchange      EXHF   =         0.00000000
  -V(xc)+E(xc)   XCENC  =       -46.79221567
  PAW double counting   =      4013.84859731    -7576.52717041
  entropy T*S    EENTRO =        -0.00000000
  eigenvalues    EBANDS =      -466.10267332
  atomic energy  EATOM  =      4143.78307380
  ---------------------------------------------------
  free energy    TOTEN  =     -3892.58405586 eV

  energy without entropy =    -3892.58405586  energy(sigma->0) =    -3892.58405586
  exchange ACFDT corr.  =         0.00000000  see jH, gK, PRB 81, 115126


--------------------------------------------------------------------------------------------------------




--------------------------------------- Iteration      1(   5)  ---------------------------------------


    POTLOK:  cpu time      0.2569: real time      0.2575
    SETDIJ:  cpu time      0.7523: real time      0.7521
    TRIAL :  cpu time      2.5696: real time      2.5832
    CORREC:  cpu time      0.0008: real time      0.0008
    CHARGE:  cpu time      0.0619: real time      0.0621
    --------------------------------------------
      LOOP:  cpu time      3.6441: real time      3.6659

 eigenvalue-minimisations  :   144
 total energy-change (2. order) : 0.3885700E+04  (-0.3312986E+01)
 number of electron      43.9999997 magnetization 
 augmentation part       21.7113153 magnetization 

 DIPCOR: dipole corrections for dipol
 direction  3 min pos     1,
 dipolmoment           0.000000      0.000000     -0.017667 electrons x Angstroem
 Tr[quadrupol]     -7475.678642

 energy correction for charged system         0.000000 eV
 dipol+quadrupol energy correction           -0.000003 eV
 added-field ion interaction          0.066095 eV  (added to PSCEN)


 Free energy of the ion-electron system (eV)
  ---------------------------------------------------
  alpha Z        PSCENC =         1.44332138
  Ewald energy   TEWEN  =      1478.23520240
  -Hartree energ DENC   =     -5440.47219134
  -exchange      EXHF   =       113.59960600
  -V(xc)+E(xc)   XCENC  =       -36.11728955
  PAW double counting   =      4002.77590051    -3846.37254686
  entropy T*S    EENTRO =        -0.00000000
  eigenvalues    EBANDS =      -423.75929534
  atomic energy  EATOM  =      4143.78307380
  ---------------------------------------------------
  free energy    TOTEN  =        -6.88421900 eV

  energy without entropy =       -6.88421900  energy(sigma->0) =       -6.88421900
  exchange ACFDT corr.  =        -0.00000000  see jH, gK, PRB 81, 115126


--------------------------------------------------------------------------------------------------------




--------------------------------------- Iteration      1(   6)  ---------------------------------------


    POTLOK:  cpu time      0.2661: real time      0.2666
    SETDIJ:  cpu time      0.7599: real time      0.7606
    TRIAL :  cpu time      2.4181: real time      2.4653
    CORREC:  cpu time      3.1404: real time      3.1417
    CHARGE:  cpu time      0.0564: real time      0.0564
    --------------------------------------------
      LOOP:  cpu time      6.6456: real time      6.7045

 eigenvalue-minimisations  :     0
 total energy-change (2. order) : 0.1644442E+01  (-0.1046111E+01)
 number of electron      43.9999997 magnetization 
 augmentation part       21.3560520 magnetization 

 DIPCOR: dipole corrections for dipol
 direction  3 min pos     1,
 dipolmoment           0.000000      0.000000      1.332111 electrons x Angstroem
 Tr[quadrupol]     -7465.708468

 energy correction for charged system         0.000000 eV
 dipol+quadrupol energy correction           -0.017557 eV
 added-field ion interaction         -4.983771 eV  (added to PSCEN)


 Free energy of the ion-electron system (eV)
  ---------------------------------------------------
  alpha Z        PSCENC =        -4.62526898
  Ewald energy   TEWEN  =      1478.23520240
  -Hartree energ DENC   =     -5546.95943847
  -exchange      EXHF   =       109.57615606
  -V(xc)+E(xc)   XCENC  =       -34.63521890
  PAW double counting   =      4695.11655371    -4542.85305872
  entropy T*S    EENTRO =        -0.00000000
  eigenvalues    EBANDS =      -302.87777771
  atomic energy  EATOM  =      4143.78307380
  ---------------------------------------------------
  free energy    TOTEN  =        -5.23977682 eV

  energy without entropy =       -5.23977682  energy(sigma->0) =       -5.23977682
  exchange ACFDT corr.  =        -0.00000000  see jH, gK, PRB 81, 115126


--------------------------------------------------------------------------------------------------------




--------------------------------------- Iteration      1(   7)  ---------------------------------------


    POTLOK:  cpu time      0.2643: real time      0.2634
    SETDIJ:  cpu time      0.7595: real time      0.7602
    TRIAL :  cpu time      2.0797: real time      2.0826
    CORREC:  cpu time      3.1715: real time      3.1736
    CHARGE:  cpu time      0.0568: real time      0.0567
    --------------------------------------------
      LOOP:  cpu time      6.3361: real time      6.3502

 eigenvalue-minimisations  :     0
 total energy-change (2. order) :-0.1054679E+01  (-0.1966943E+00)
 number of electron      43.9999997 magnetization 
 augmentation part       21.4573034 magnetization 

 DIPCOR: dipole corrections for dipol
 direction  3 min pos     1,
 dipolmoment           0.000000      0.000000      1.212267 electrons x Angstroem
 Tr[quadrupol]     -7466.776655

 energy correction for charged system         0.000000 eV
 dipol+quadrupol energy correction           -0.014540 eV
 added-field ion interaction         -4.535403 eV  (added to PSCEN)


 Free energy of the ion-electron system (eV)
  ---------------------------------------------------
  alpha Z        PSCENC =        -3.83238556
  Ewald energy   TEWEN  =      1478.23520240
  -Hartree energ DENC   =     -5469.56262353
  -exchange      EXHF   =       108.05684786
  -V(xc)+E(xc)   XCENC  =       -35.99688693
  PAW double counting   =      4633.65928949    -4480.47817468
  entropy T*S    EENTRO =        -0.00000000
  eigenvalues    EBANDS =      -380.15879829
  atomic energy  EATOM  =      4143.78307380
  ---------------------------------------------------
  free energy    TOTEN  =        -6.29445543 eV

  energy without entropy =       -6.29445543  energy(sigma->0) =       -6.29445543
  exchange ACFDT corr.  =        -0.00000000  see jH, gK, PRB 81, 115126


--------------------------------------------------------------------------------------------------------




--------------------------------------- Iteration      1(   8)  ---------------------------------------


    POTLOK:  cpu time      0.3741: real time      0.3736
    SETDIJ:  cpu time      0.7590: real time      0.7597
    TRIAL :  cpu time      2.2207: real time      2.2233
    CORREC:  cpu time      3.2580: real time      3.2592
    CHARGE:  cpu time      0.0590: real time      0.0590
    --------------------------------------------
      LOOP:  cpu time      6.6750: real time      6.6890

 eigenvalue-minimisations  :     0
 total energy-change (2. order) :-0.1968334E+00  (-0.8679789E-01)
 number of electron      43.9999997 magnetization 
 augmentation part       21.4383579 magnetization 

 DIPCOR: dipole corrections for dipol
 direction  3 min pos     1,
 dipolmoment           0.000000      0.000000      0.983467 electrons x Angstroem
 Tr[quadrupol]     -7468.593340

 energy correction for charged system         0.000000 eV
 dipol+quadrupol energy correction           -0.009570 eV
 added-field ion interaction         -3.679406 eV  (added to PSCEN)


 Free energy of the ion-electron system (eV)
  ---------------------------------------------------
  alpha Z        PSCENC =        -2.81679258
  Ewald energy   TEWEN  =      1478.23520240
  -Hartree energ DENC   =     -5473.55616362
  -exchange      EXHF   =       108.32750974
  -V(xc)+E(xc)   XCENC  =       -35.76829083
  PAW double counting   =      4623.35782467    -4470.06592992
  entropy T*S    EENTRO =        -0.00000000
  eigenvalues    EBANDS =      -377.98772252
  atomic energy  EATOM  =      4143.78307380
  ---------------------------------------------------
  free energy    TOTEN  =        -6.49128886 eV

  energy without entropy =       -6.49128886  energy(sigma->0) =       -6.49128886
  exchange ACFDT corr.  =        -0.00000000  see jH, gK, PRB 81, 115126


--------------------------------------------------------------------------------------------------------




--------------------------------------- Iteration      1(   9)  ---------------------------------------


    POTLOK:  cpu time      0.2634: real time      0.2633
    SETDIJ:  cpu time      0.7573: real time      0.7579
    TRIAL :  cpu time      2.2154: real time      2.2179
    CORREC:  cpu time      3.2701: real time      3.2740
    CHARGE:  cpu time      0.0591: real time      0.0591
    --------------------------------------------
      LOOP:  cpu time      6.5691: real time      6.5868

 eigenvalue-minimisations  :     0
 total energy-change (2. order) :-0.8559287E-01  (-0.2138684E-01)
 number of electron      43.9999997 magnetization 
 augmentation part       21.4280235 magnetization 

 DIPCOR: dipole corrections for dipol
 direction  3 min pos     1,
 dipolmoment           0.000000      0.000000      0.732434 electrons x Angstroem
 Tr[quadrupol]     -7470.665767

 energy correction for charged system         0.000000 eV
 dipol+quadrupol energy correction           -0.005308 eV
 added-field ion interaction         -2.740227 eV  (added to PSCEN)


 Free energy of the ion-electron system (eV)
  ---------------------------------------------------
  alpha Z        PSCENC =        -1.58457838
  Ewald energy   TEWEN  =      1478.23520240
  -Hartree energ DENC   =     -5472.01510027
  -exchange      EXHF   =       108.24480301
  -V(xc)+E(xc)   XCENC  =       -35.82496656
  PAW double counting   =      4614.24908821    -4460.91271729
  entropy T*S    EENTRO =        -0.00000000
  eigenvalues    EBANDS =      -380.75168666
  atomic energy  EATOM  =      4143.78307380
  ---------------------------------------------------
  free energy    TOTEN  =        -6.57688172 eV

  energy without entropy =       -6.57688172  energy(sigma->0) =       -6.57688172
  exchange ACFDT corr.  =        -0.00000000  see jH, gK, PRB 81, 115126


--------------------------------------------------------------------------------------------------------




--------------------------------------- Iteration      1(  10)  ---------------------------------------


    POTLOK:  cpu time      0.2642: real time      0.2639
    SETDIJ:  cpu time      0.7608: real time      0.7614
    TRIAL :  cpu time      2.2160: real time      2.2193
    CORREC:  cpu time      3.2507: real time      3.2557
    CHARGE:  cpu time      0.0604: real time      0.0604
    --------------------------------------------
      LOOP:  cpu time      6.5565: real time      6.5739

 eigenvalue-minimisations  :     0
 total energy-change (2. order) :-0.2137870E-01  (-0.6334013E-02)
 number of electron      43.9999997 magnetization 
 augmentation part       21.4467745 magnetization 

 DIPCOR: dipole corrections for dipol
 direction  3 min pos     1,
 dipolmoment           0.000000      0.000000      0.698783 electrons x Angstroem
 Tr[quadrupol]     -7470.786439

 energy correction for charged system         0.000000 eV
 dipol+quadrupol energy correction           -0.004831 eV
 added-field ion interaction         -2.614328 eV  (added to PSCEN)


 Free energy of the ion-electron system (eV)
  ---------------------------------------------------
  alpha Z        PSCENC =        -1.28017611
  Ewald energy   TEWEN  =      1478.23520240
  -Hartree energ DENC   =     -5467.69943382
  -exchange      EXHF   =       108.16888741
  -V(xc)+E(xc)   XCENC  =       -35.89617080
  PAW double counting   =      4614.22978881    -4460.84103654
  entropy T*S    EENTRO =        -0.00000000
  eigenvalues    EBANDS =      -385.29839557
  atomic energy  EATOM  =      4143.78307380
  ---------------------------------------------------
  free energy    TOTEN  =        -6.59826042 eV

  energy without entropy =       -6.59826042  energy(sigma->0) =       -6.59826042
  exchange ACFDT corr.  =        -0.00000000  see jH, gK, PRB 81, 115126


--------------------------------------------------------------------------------------------------------




--------------------------------------- Iteration      1(  11)  ---------------------------------------


    POTLOK:  cpu time      0.2621: real time      0.2618
    SETDIJ:  cpu time      0.7625: real time      0.7631
    TRIAL :  cpu time      2.2467: real time      2.2543
    CORREC:  cpu time      3.3423: real time      3.3440
    CHARGE:  cpu time      0.0609: real time      0.0610
    --------------------------------------------
      LOOP:  cpu time      6.6877: real time      6.6976

 eigenvalue-minimisations  :     0
 total energy-change (2. order) :-0.6332133E-02  (-0.1855843E-02)
 number of electron      43.9999997 magnetization 
 augmentation part       21.4402710 magnetization 

 DIPCOR: dipole corrections for dipol
 direction  3 min pos     1,
 dipolmoment           0.000000      0.000000      0.707029 electrons x Angstroem
 Tr[quadrupol]     -7470.663039

 energy correction for charged system         0.000000 eV
 dipol+quadrupol energy correction           -0.004946 eV
 added-field ion interaction         -2.645178 eV  (added to PSCEN)


 Free energy of the ion-electron system (eV)
  ---------------------------------------------------
  alpha Z        PSCENC =        -1.23607158
  Ewald energy   TEWEN  =      1478.23520240
  -Hartree energ DENC   =     -5469.24248053
  -exchange      EXHF   =       108.21608017
  -V(xc)+E(xc)   XCENC  =       -35.85811791
  PAW double counting   =      4618.45197447    -4465.05714059
  entropy T*S    EENTRO =        -0.00000000
  eigenvalues    EBANDS =      -383.89711279
  atomic energy  EATOM  =      4143.78307380
  ---------------------------------------------------
  free energy    TOTEN  =        -6.60459255 eV

  energy without entropy =       -6.60459255  energy(sigma->0) =       -6.60459255
  exchange ACFDT corr.  =        -0.00000000  see jH, gK, PRB 81, 115126


--------------------------------------------------------------------------------------------------------




--------------------------------------- Iteration      1(  12)  ---------------------------------------


    POTLOK:  cpu time      0.2942: real time      0.2939
    SETDIJ:  cpu time      0.7562: real time      0.7568
    TRIAL :  cpu time      2.2771: real time      2.2814
    CORREC:  cpu time      3.2652: real time      3.2724
    CHARGE:  cpu time      0.0604: real time      0.0604
    --------------------------------------------
      LOOP:  cpu time      6.6667: real time      6.6787

 eigenvalue-minimisations  :     0
 total energy-change (2. order) :-0.1858085E-02  (-0.5610205E-03)
 number of electron      43.9999997 magnetization 
 augmentation part       21.4424578 magnetization 

 DIPCOR: dipole corrections for dipol
 direction  3 min pos     1,
 dipolmoment           0.000000      0.000000      0.717136 electrons x Angstroem
 Tr[quadrupol]     -7470.557887

 energy correction for charged system         0.000000 eV
 dipol+quadrupol energy correction           -0.005088 eV
 added-field ion interaction         -2.682990 eV  (added to PSCEN)


 Free energy of the ion-electron system (eV)
  ---------------------------------------------------
  alpha Z        PSCENC =        -1.28821695
  Ewald energy   TEWEN  =      1478.23520240
  -Hartree energ DENC   =     -5468.09882080
  -exchange      EXHF   =       108.18870895
  -V(xc)+E(xc)   XCENC  =       -35.88112952
  PAW double counting   =      4618.32974245    -4464.92799737
  entropy T*S    EENTRO =        -0.00000000
  eigenvalues    EBANDS =      -384.94701360
  atomic energy  EATOM  =      4143.78307380
  ---------------------------------------------------
  free energy    TOTEN  =        -6.60645064 eV

  energy without entropy =       -6.60645064  energy(sigma->0) =       -6.60645064
  exchange ACFDT corr.  =        -0.00000000  see jH, gK, PRB 81, 115126


--------------------------------------------------------------------------------------------------------




--------------------------------------- Iteration      1(  13)  ---------------------------------------


    POTLOK:  cpu time      0.2600: real time      0.2596
    SETDIJ:  cpu time      0.7562: real time      0.7569
    TRIAL :  cpu time      2.2381: real time      2.2414
    CORREC:  cpu time      3.2692: real time      3.2708
    CHARGE:  cpu time      0.0584: real time      0.0585
    --------------------------------------------
      LOOP:  cpu time      6.5867: real time      6.6004

 eigenvalue-minimisations  :     0
 total energy-change (2. order) :-0.5591958E-03  (-0.1592612E-03)
 number of electron      43.9999997 magnetization 
 augmentation part       21.4410209 magnetization 

 DIPCOR: dipole corrections for dipol
 direction  3 min pos     1,
 dipolmoment           0.000000      0.000000      0.725502 electrons x Angstroem
 Tr[quadrupol]     -7470.479669

 energy correction for charged system         0.000000 eV
 dipol+quadrupol energy correction           -0.005208 eV
 added-field ion interaction         -2.714291 eV  (added to PSCEN)


 Free energy of the ion-electron system (eV)
  ---------------------------------------------------
  alpha Z        PSCENC =        -1.32570505
  Ewald energy   TEWEN  =      1478.23520240
  -Hartree energ DENC   =     -5468.40171255
  -exchange      EXHF   =       108.19600158
  -V(xc)+E(xc)   XCENC  =       -35.87426788
  PAW double counting   =      4619.31898825    -4465.91919282
  entropy T*S    EENTRO =        -0.00000000
  eigenvalues    EBANDS =      -384.61939757
  atomic energy  EATOM  =      4143.78307380
  ---------------------------------------------------
  free energy    TOTEN  =        -6.60700984 eV

  energy without entropy =       -6.60700984  energy(sigma->0) =       -6.60700984
  exchange ACFDT corr.  =        -0.00000000  see jH, gK, PRB 81, 115126


--------------------------------------------------------------------------------------------------------




--------------------------------------- Iteration      1(  14)  ---------------------------------------


    POTLOK:  cpu time      0.2559: real time      0.2564
    SETDIJ:  cpu time      0.7615: real time      0.7621
    TRIAL :  cpu time      2.2164: real time      2.2175
    CORREC:  cpu time      3.2537: real time      3.2559
    CHARGE:  cpu time      0.0592: real time      0.0592
    --------------------------------------------
      LOOP:  cpu time      6.5527: real time      6.5661

 eigenvalue-minimisations  :     0
 total energy-change (2. order) :-0.1598437E-03  (-0.5846492E-04)
 number of electron      43.9999997 magnetization 
 augmentation part       21.4417197 magnetization 

 DIPCOR: dipole corrections for dipol
 direction  3 min pos     1,
 dipolmoment           0.000000      0.000000      0.730709 electrons x Angstroem
 Tr[quadrupol]     -7470.431995

 energy correction for charged system         0.000000 eV
 dipol+quadrupol energy correction           -0.005283 eV
 added-field ion interaction         -2.733770 eV  (added to PSCEN)


 Free energy of the ion-electron system (eV)
  ---------------------------------------------------
  alpha Z        PSCENC =        -1.34779707
  Ewald energy   TEWEN  =      1478.23520240
  -Hartree energ DENC   =     -5468.07991418
  -exchange      EXHF   =       108.18892857
  -V(xc)+E(xc)   XCENC  =       -35.88033738
  PAW double counting   =      4619.62641779    -4466.22410932
  entropy T*S    EENTRO =        -0.00000000
  eigenvalues    EBANDS =      -384.90863429
  atomic energy  EATOM  =      4143.78307380
  ---------------------------------------------------
  free energy    TOTEN  =        -6.60716968 eV

  energy without entropy =       -6.60716968  energy(sigma->0) =       -6.60716968
  exchange ACFDT corr.  =        -0.00000000  see jH, gK, PRB 81, 115126


--------------------------------------------------------------------------------------------------------




--------------------------------------- Iteration      1(  15)  ---------------------------------------


    POTLOK:  cpu time      0.2567: real time      0.2565
    SETDIJ:  cpu time      0.7576: real time      0.7581
    TRIAL :  cpu time      2.2572: real time      2.2582
    CORREC:  cpu time      4.3957: real time      4.3982
    CHARGE:  cpu time      0.0591: real time      0.0592
    --------------------------------------------
      LOOP:  cpu time      7.7328: real time      7.7454

 eigenvalue-minimisations  :     0
 total energy-change (2. order) :-0.5820845E-04  (-0.1730526E-04)
 number of electron      43.9999997 magnetization 
 augmentation part       21.4419003 magnetization 

 DIPCOR: dipole corrections for dipol
 direction  3 min pos     1,
 dipolmoment           0.000000      0.000000      0.732867 electrons x Angstroem
 Tr[quadrupol]     -7470.413642

 energy correction for charged system         0.000000 eV
 dipol+quadrupol energy correction           -0.005314 eV
 added-field ion interaction         -2.741844 eV  (added to PSCEN)


 Free energy of the ion-electron system (eV)
  ---------------------------------------------------
  alpha Z        PSCENC =        -1.36681703
  Ewald energy   TEWEN  =      1478.23520240
  -Hartree energ DENC   =     -5468.14696801
  -exchange      EXHF   =       108.19077525
  -V(xc)+E(xc)   XCENC  =       -35.87867590
  PAW double counting   =      4620.07082968    -4466.66898304
  entropy T*S    EENTRO =        -0.00000000
  eigenvalues    EBANDS =      -384.82566503
  atomic energy  EATOM  =      4143.78307380
  ---------------------------------------------------
  free energy    TOTEN  =        -6.60722789 eV

  energy without entropy =       -6.60722789  energy(sigma->0) =       -6.60722789
  exchange ACFDT corr.  =        -0.00000000  see jH, gK, PRB 81, 115126


--------------------------------------------------------------------------------------------------------




--------------------------------------- Iteration      1(  16)  ---------------------------------------


    POTLOK:  cpu time      0.2654: real time      0.2659
    SETDIJ:  cpu time      0.7615: real time      0.7618
    TRIAL :  cpu time      2.2371: real time      2.2435
    CORREC:  cpu time      3.2935: real time      3.3057
    CHARGE:  cpu time      0.0597: real time      0.0597
    --------------------------------------------
      LOOP:  cpu time      6.6229: real time      6.6511

 eigenvalue-minimisations  :     0
 total energy-change (2. order) :-0.1725509E-04  (-0.4070575E-05)
 number of electron      43.9999997 magnetization 
 augmentation part       21.4415375 magnetization 

 DIPCOR: dipole corrections for dipol
 direction  3 min pos     1,
 dipolmoment           0.000000      0.000000      0.733012 electrons x Angstroem
 Tr[quadrupol]     -7470.413640

 energy correction for charged system         0.000000 eV
 dipol+quadrupol energy correction           -0.005316 eV
 added-field ion interaction         -2.742386 eV  (added to PSCEN)


 Free energy of the ion-electron system (eV)
  ---------------------------------------------------
  alpha Z        PSCENC =        -1.37087311
  Ewald energy   TEWEN  =      1478.23520240
  -Hartree energ DENC   =     -5468.16437558
  -exchange      EXHF   =       108.19120985
  -V(xc)+E(xc)   XCENC  =       -35.87826511
  PAW double counting   =      4620.30414780    -4466.90209177
  entropy T*S    EENTRO =        -0.00000000
  eigenvalues    EBANDS =      -384.80527343
  atomic energy  EATOM  =      4143.78307380
  ---------------------------------------------------
  free energy    TOTEN  =        -6.60724514 eV

  energy without entropy =       -6.60724514  energy(sigma->0) =       -6.60724514
  exchange ACFDT corr.  =        -0.00000000  see jH, gK, PRB 81, 115126


--------------------------------------------------------------------------------------------------------




--------------------------------------- Iteration      1(  17)  ---------------------------------------


    POTLOK:  cpu time      0.2643: real time      0.2638
    SETDIJ:  cpu time      0.7594: real time      0.7599
    TRIAL :  cpu time      2.2801: real time      2.2842
    CORREC:  cpu time      3.3649: real time      3.3733
    CHARGE:  cpu time      0.0600: real time      0.0600
    --------------------------------------------
      LOOP:  cpu time      6.7325: real time      6.7569

 eigenvalue-minimisations  :     0
 total energy-change (2. order) :-0.4065423E-05  (-0.2310318E-05)
 number of electron      43.9999997 magnetization 
 augmentation part       21.4418434 magnetization 

 DIPCOR: dipole corrections for dipol
 direction  3 min pos     1,
 dipolmoment           0.000000      0.000000      0.732633 electrons x Angstroem
 Tr[quadrupol]     -7470.418404

 energy correction for charged system         0.000000 eV
 dipol+quadrupol energy correction           -0.005311 eV
 added-field ion interaction         -2.740968 eV  (added to PSCEN)


 Free energy of the ion-electron system (eV)
  ---------------------------------------------------
  alpha Z        PSCENC =        -1.37047767
  Ewald energy   TEWEN  =      1478.23520240
  -Hartree energ DENC   =     -5468.11580865
  -exchange      EXHF   =       108.18990691
  -V(xc)+E(xc)   XCENC  =       -35.87938478
  PAW double counting   =      4620.33645364    -4466.93423252
  entropy T*S    EENTRO =        -0.00000000
  eigenvalues    EBANDS =      -384.85198234
  atomic energy  EATOM  =      4143.78307380
  ---------------------------------------------------
  free energy    TOTEN  =        -6.60724921 eV

  energy without entropy =       -6.60724921  energy(sigma->0) =       -6.60724921
  exchange ACFDT corr.  =        -0.00000000  see jH, gK, PRB 81, 115126


--------------------------------------------------------------------------------------------------------




--------------------------------------- Iteration      1(  18)  ---------------------------------------


    POTLOK:  cpu time      0.2670: real time      0.2673
    SETDIJ:  cpu time      0.7565: real time      0.7560
    TRIAL :  cpu time      2.2775: real time      2.2864
    CORREC:  cpu time      3.3273: real time      3.3296
    CHARGE:  cpu time      0.0594: real time      0.0594
    --------------------------------------------
      LOOP:  cpu time      6.6929: real time      6.7126

 eigenvalue-minimisations  :     0
 total energy-change (2. order) :-0.2015948E-05  (-0.4312272E-06)
 number of electron      43.9999997 magnetization 
 augmentation part       21.4417226 magnetization 

 DIPCOR: dipole corrections for dipol
 direction  3 min pos     1,
 dipolmoment           0.000000      0.000000      0.731904 electrons x Angstroem
 Tr[quadrupol]     -7470.426526

 energy correction for charged system         0.000000 eV
 dipol+quadrupol energy correction           -0.005300 eV
 added-field ion interaction         -2.738241 eV  (added to PSCEN)


 Free energy of the ion-electron system (eV)
  ---------------------------------------------------
  alpha Z        PSCENC =        -1.36795316
  Ewald energy   TEWEN  =      1478.23520240
  -Hartree energ DENC   =     -5468.17768734
  -exchange      EXHF   =       108.19112726
  -V(xc)+E(xc)   XCENC  =       -35.87828630
  PAW double counting   =      4620.49513709    -4467.09339720
  entropy T*S    EENTRO =        -0.00000000
  eigenvalues    EBANDS =      -384.79446777
  atomic energy  EATOM  =      4143.78307380
  ---------------------------------------------------
  free energy    TOTEN  =        -6.60725122 eV

  energy without entropy =       -6.60725122  energy(sigma->0) =       -6.60725122
  exchange ACFDT corr.  =        -0.00000000  see jH, gK, PRB 81, 115126


--------------------------------------------------------------------------------------------------------




--------------------------------------- Iteration      1(  19)  ---------------------------------------


    POTLOK:  cpu time      0.4419: real time      0.4415
    SETDIJ:  cpu time      0.7589: real time      0.7595
    TRIAL :  cpu time      2.2375: real time      2.2407
    CORREC:  cpu time      3.2707: real time      3.2721
    EDDIAG:  cpu time      2.2022: real time      2.2000
    CHARGE:  cpu time      0.0640: real time      0.0640
    --------------------------------------------
      LOOP:  cpu time      8.9889: real time      8.9917

 eigenvalue-minimisations  :     0
 total energy-change (2. order) :-0.3945197E-06  (-0.2160450E-06)
 number of electron      43.9999997 magnetization 
 augmentation part       21.4416421 magnetization 

 DIPCOR: dipole corrections for dipol
 direction  3 min pos     1,
 dipolmoment           0.000000      0.000000      0.731819 electrons x Angstroem
 Tr[quadrupol]     -7470.427032

 energy correction for charged system         0.000000 eV
 dipol+quadrupol energy correction           -0.005299 eV
 added-field ion interaction         -2.737923 eV  (added to PSCEN)


 Free energy of the ion-electron system (eV)
  ---------------------------------------------------
  alpha Z        PSCENC =        -1.36680542
  Ewald energy   TEWEN  =      1478.23520240
  -Hartree energ DENC   =     -5468.16244817
  -exchange      EXHF   =       108.19038320
  -V(xc)+E(xc)   XCENC  =       -35.87865452
  PAW double counting   =      4620.52042703    -4467.11868143
  entropy T*S    EENTRO =        -0.00000000
  eigenvalues    EBANDS =      -384.81005612
  atomic energy  EATOM  =      4143.78307380
  ---------------------------------------------------
  free energy    TOTEN  =        -6.60725162 eV

  energy without entropy =       -6.60725162  energy(sigma->0) =       -6.60725162
  exchange ACFDT corr.  =        -0.00000000  see jH, gK, PRB 81, 115126


--------------------------------------------------------------------------------------------------------


  average scaling for gradient   1.7669


 average (electrostatic) potential at core
  the test charge radii are     1.1249
  (the norm of the test charge is              1.0000)
       1 -75.8627       2 -74.3746       3 -75.1004       4 -75.8610
 
 
 
 E-fermi :  -4.3967     XC(G=0):  -0.1974     alpha+bet : -0.1553

 Fermi energy:        -4.3967222635

 k-point     1 :       0.0000    0.0000    0.0000
  band No.  band energies     occupation 
      1     -10.7032      2.00000
      2     -10.3531      2.00000
      3     -10.1185      2.00000
      4     -10.0048      2.00000
      5      -9.7486      2.00000
      6      -9.7373      2.00000
      7      -9.5597      2.00000
      8      -9.2744      2.00000
      9      -9.1796      2.00000
     10      -9.1656      2.00000
     11      -9.1015      2.00000
     12      -8.8573      2.00000
     13      -8.6442      2.00000
     14      -8.6290      2.00000
     15      -8.6032      2.00000
     16      -8.0106      2.00000
     17      -8.0103      2.00000
     18      -7.8303      2.00000
     19      -7.7867      2.00000
     20      -7.6828      2.00000
     21      -6.7790      2.00000
     22      -4.6361      2.00000
     23      -2.7754      0.00000
     24      -1.7001      0.00000
     25      -1.0184      0.00000
     26      -0.3382      0.00000
     27      -0.1482      0.00000
     28       0.0565      0.00000
     29       0.0651      0.00000
     30       0.2812      0.00000
     31       0.3292      0.00000
     32       0.3570      0.00000
     33       0.3725      0.00000
     34       0.3777      0.00000
     35       0.4282      0.00000
     36       0.4767      0.00000
     37       0.5250      0.00000
     38       0.6374      0.00000
     39       0.6652      0.00000
     40       0.6768      0.00000
     41       0.6854      0.00000
     42       0.6990      0.00000
     43       0.7282      0.00000
     44       0.7354      0.00000
     45       0.7798      0.00000
     46       0.8311      0.00000
     47       0.8456      0.00000
     48       0.8852      0.00000


--------------------------------------------------------------------------------------------------------


 soft charge-density along one line, spin component           1
         0         1         2         3         4         5         6         7         8         9
 total charge-density along one line
 
 pseudopotential strength for first ion, spin component:           1
 -8.870   0.000   0.000   0.006   0.000  -8.927   0.000   0.000
  0.000  -8.885   0.008  -0.000  -0.006   0.000  -8.941   0.008
  0.000   0.008  -8.874   0.000  -0.016   0.000   0.008  -8.930
  0.006  -0.000   0.000  -8.857   0.000   0.006  -0.000   0.000
  0.000  -0.006  -0.016   0.000  -8.875   0.000  -0.006  -0.016
 -8.927   0.000   0.000   0.006   0.000  -8.956   0.000   0.000
  0.000  -8.941   0.008  -0.000  -0.006   0.000  -8.970   0.007
  0.000   0.008  -8.930   0.000  -0.016   0.000   0.007  -8.959
  0.006  -0.000   0.000  -8.914   0.000   0.006  -0.000   0.000
  0.000  -0.006  -0.016   0.000  -8.932   0.000  -0.006  -0.015
  0.000  -0.006  -0.001  -0.000  -0.013   0.000  -0.006  -0.001
  0.000  -0.009  -0.002  -0.000  -0.021   0.000  -0.009  -0.002
  0.000  -0.011  -0.028   0.000  -0.048   0.000  -0.010  -0.027
  0.000   0.049  -0.013   0.000  -0.000   0.000   0.047  -0.012
  0.049   0.000  -0.000  -0.011   0.000   0.048   0.000  -0.000
  0.000  -0.012  -0.034   0.000  -0.058   0.000  -0.012  -0.033
  0.000   0.059  -0.015   0.000  -0.000   0.000   0.057  -0.015
  0.059   0.000  -0.000  -0.013   0.000   0.057   0.000  -0.000
 total augmentation occupancy for first ion, spin component:           1
  2.270  -0.000  -0.000  -0.031  -0.000  -0.233   0.000   0.000   0.049   0.000  -0.002   0.001   0.000  -0.000  -0.002   0.000
 -0.000   2.420  -0.067   0.000   0.135   0.000  -0.459   0.126  -0.000  -0.149   0.548  -0.168  -0.064   0.061  -0.000  -0.001
 -0.000  -0.067   2.450  -0.000   0.120   0.000   0.126  -0.462   0.000  -0.185   0.128  -0.026  -0.031  -0.075   0.000  -0.014
 -0.031   0.000  -0.000   2.273   0.000   0.049  -0.000   0.000  -0.196  -0.000   0.002  -0.000  -0.000   0.000  -0.013   0.000
 -0.000   0.135   0.120   0.000   2.553   0.000  -0.149  -0.185  -0.000  -0.564   1.156  -0.329  -0.131   0.022  -0.000  -0.016
 -0.233   0.000   0.000   0.049   0.000   0.202  -0.000  -0.000  -0.065  -0.001   0.002  -0.001  -0.000   0.000  -0.034   0.000
  0.000  -0.459   0.126  -0.000  -0.149  -0.000   0.494  -0.178   0.001   0.161  -0.499   0.156   0.072  -0.107   0.000  -0.007
  0.000   0.126  -0.462   0.000  -0.185  -0.000  -0.178   0.473  -0.000   0.242  -0.092   0.018   0.055   0.093  -0.000  -0.005
  0.049  -0.000   0.000  -0.196  -0.000  -0.065   0.001  -0.000   0.128   0.000  -0.001   0.000   0.000  -0.000   0.021  -0.000
  0.000  -0.149  -0.185  -0.000  -0.564  -0.001   0.161   0.242   0.000   0.575  -1.025   0.301   0.178  -0.022   0.000  -0.017
 -0.002   0.548   0.128   0.002   1.156   0.002  -0.499  -0.092  -0.001  -1.025   3.435  -0.958  -0.408   0.131  -0.000   0.034
  0.001  -0.168  -0.026  -0.000  -0.329  -0.001   0.156   0.018   0.000   0.301  -0.958   0.270   0.117  -0.043   0.000  -0.010
  0.000  -0.064  -0.031  -0.000  -0.131  -0.000   0.072   0.055   0.000   0.178  -0.408   0.117   0.062  -0.014   0.000  -0.007
 -0.000   0.061  -0.075   0.000   0.022   0.000  -0.107   0.093  -0.000  -0.022   0.131  -0.043  -0.014   0.038  -0.000   0.002
 -0.002  -0.000   0.000  -0.013  -0.000  -0.034   0.000  -0.000   0.021   0.000  -0.000   0.000   0.000  -0.000   0.008  -0.000
  0.000  -0.001  -0.014   0.000  -0.016   0.000  -0.007  -0.005  -0.000  -0.017   0.034  -0.010  -0.007   0.002  -0.000   0.001
  0.000   0.024  -0.002   0.000  -0.003  -0.000   0.010  -0.008   0.000   0.003  -0.012   0.004   0.001  -0.004   0.000  -0.000
  0.031   0.000  -0.000  -0.006   0.000   0.003  -0.000   0.000  -0.002  -0.000   0.000  -0.000  -0.000   0.000  -0.001   0.000


------------------------ aborting loop because EDIFF is reached ----------------------------------------


    FORLOC:  cpu time      0.0145: real time      0.0145
    FORHF :  cpu time      0.7696: real time      0.7817
    FORNL :  cpu time      0.2501: real time      0.2500
    FORCOR:  cpu time      1.0088: real time      1.0086
    OFIELD:  cpu time      0.0004: real time      0.0004
 -----------------------------------------------------------------------------
|                                                                             |
|           W    W    AA    RRRRR   N    N  II  N    N   GGGG   !!!           |
|           W    W   A  A   R    R  NN   N  II  NN   N  G    G  !!!           |
|           W    W  A    A  R    R  N N  N  II  N N  N  G       !!!           |
|           W WW W  AAAAAA  RRRRR   N  N N  II  N  N N  G  GGG   !            |
|           WW  WW  A    A  R   R   N   NN  II  N   NN  G    G                |
|           W    W  A    A  R    R  N    N  II  N    N   GGGG   !!!           |
|                                                                             |
|     Specifying the vdW parameters                                           |
|     VDW_S8 = 0.928                                                          |
|     VDW_SR = 1.287                                                          |
|     in the INCAR file will overwrite the defaults for pbe0. Please make     |
|     sure that is what you intended.                                         |
|                                                                             |
 -----------------------------------------------------------------------------


 ---------------------------------------------------------------------------------------------

         DFTD3 V3.0 Rev 1        
 IVDW         = 11
 DF pbe0      
 parameters
 VDW_S6       =    1.0000
 VDW_S8       =    0.9280
 VDW_SR       =    1.2870
 rs18     =    1.0000
 alpha6   =   14.0000
 alpha8   =   16.0000
 k1-k3    =   16.0000    1.3333   -4.0000
 VDW_RADIUS   =   50.2022 A
 VDW_CNRADIUS =   21.1671 A
 Edisp (eV)   -0.05611

 E6    (eV) :    -0.0125
 E8    (eV) :    -0.0436
 % E8        : 77.78
    FORVDW:  cpu time      0.0170: real time      0.0170

 VOLUME and BASIS-vectors are now :
 -----------------------------------------------------------------------------
  energy-cutoff  :      520.00
  volume of cell :     9881.61
      direct lattice vectors                 reciprocal lattice vectors
    21.138852197  0.000000000  0.000000000     0.047306258  0.000000000  0.000000000
     0.000000000 21.138852197  0.000000000     0.000000000  0.047306258  0.000000000
     0.000000000  0.000000000 22.113885220     0.000000000  0.000000000  0.045220457

  length of vectors
    21.138852197 21.138852197 22.113885220     0.047306258  0.047306258  0.045220457


 FORCES acting on ions:
    Electron-Ion                     Ewald-Force                    Non-Local-Force
 -----------------------------------------------------------------------------------------------
   -.448E+00 -.383E+03 0.267E+03   0.439E+00 0.374E+03 -.265E+03   0.721E-02 0.831E+01 -.217E+01
   -.147E+00 -.993E+00 -.388E+03   0.141E+00 0.967E+00 0.380E+03   0.436E-02 0.258E-01 0.776E+01
   0.646E+00 0.110E+01 -.146E+03   -.637E+00 -.106E+01 0.150E+03   -.948E-02 -.301E-01 -.265E+01
   -.572E-01 0.383E+03 0.267E+03   0.577E-01 -.374E+03 -.265E+03   -.117E-02 -.830E+01 -.217E+01
 -----------------------------------------------------------------------------------------------
   -.585E-02 -.140E-02 -.639E+00   -.694E-16 -.568E-13 0.000E+00   0.918E-03 0.410E-02 0.774E+00
 
 
 POSITION                                       TOTAL-FORCE (eV/Angst)
 -----------------------------------------------------------------------------------
      8.46109     11.89365     13.52833        -0.000339     -0.233794     -0.167463
      8.45935     10.56642     18.47179        -0.000349      0.000392      0.075589
      8.45769     10.55816     15.88881         0.000210     -0.000175      0.256672
      8.45973      9.22287     13.52627         0.000477      0.233577     -0.164797
 -----------------------------------------------------------------------------------
    total drift:                               -0.002207      0.001448     -0.003990


--------------------------------------------------------------------------------------------------------



  FREE ENERGIE OF THE ION-ELECTRON SYSTEM (eV)
  ---------------------------------------------------
  free  energy   TOTEN  =        -6.66336658 eV

  energy  without entropy=       -6.66336658  energy(sigma->0) =       -6.66336658
 


--------------------------------------------------------------------------------------------------------


    POTLOK:  cpu time      1.2486: real time      1.2499


--------------------------------------------------------------------------------------------------------


     LOOP+:  cpu time    105.2888: real time    105.6878
    4ORBIT:  cpu time      0.0000: real time      0.0000

 total amount of memory used by VASP MPI-rank0   278098. kBytes
=======================================================================

   base      :      30000. kBytes
   nonlr-proj:       1420. kBytes
   fftplans  :      18387. kBytes
   grid      :      15959. kBytes
   one-center:         15. kBytes
   HF        :         64. kBytes
   wavefun   :        801. kBytes
   fock_wrk  :     211452. kBytes
 
  
  
 General timing and accounting informations for this job:
 ========================================================
  
                  Total CPU time used (sec):      122.764
                            User time (sec):      118.643
                          System time (sec):        4.121
                         Elapsed time (sec):      124.507
  
                   Maximum memory used (kb):     1116624.
                   Average memory used (kb):          N/A
  
                          Minor page faults:       193863
                          Major page faults:            0
                 Voluntary context switches:         6620
