 vasp.6.4.0 14Feb23 (build Jul 14 2023 13:46:40) complex                        
  
 executed on             LinuxIFC date 2023.07.24  04:03:59
 running   64 mpi-ranks, with    1 threads/rank, on    8 nodes
 distrk:  each k-point on   64 cores,    1 groups
 distr:  one band on NCORE=   1 cores,   64 groups


--------------------------------------------------------------------------------------------------------


 INCAR:
   SYSTEM = MgO-rocksalt
   ISMEAR = 0
   SIGMA = 0.05
   EDIFF = 1E-6
   ALGO = ALL
   ISTART = 0
   IBRION = -1
   NSW = 0
   ISYM = 2
   LHFCALC = .TRUE.
   GGA = PE
   IVDW = 11
   VDW_S6 = 1.0
   VDW_SR = 1.287
   VDW_S8 = 0.928
   ENCUT = 520
   PREC = Accurate
   LASPH = .TRUE.
   LREAL = Auto
   ISPIN = 1
   NELM = 200
   NELMIN = 8
   NCORE = 1
   KPAR = 1
   LWAVE = .FALSE.
   LCHARG = .FALSE.

 POTCAR:    PAW_PBE Cu 22Jun2005                  
 -----------------------------------------------------------------------------
|                                                                             |
|           W    W    AA    RRRRR   N    N  II  N    N   GGGG   !!!           |
|           W    W   A  A   R    R  NN   N  II  NN   N  G    G  !!!           |
|           W    W  A    A  R    R  N N  N  II  N N  N  G       !!!           |
|           W WW W  AAAAAA  RRRRR   N  N N  II  N  N N  G  GGG   !            |
|           WW  WW  A    A  R   R   N   NN  II  N   NN  G    G                |
|           W    W  A    A  R    R  N    N  II  N    N   GGGG   !!!           |
|                                                                             |
|     You have selected ISYM=2 for a HF type calculation. This will           |
|     symmetrize the charge density but not the exchange potential. I         |
|     suggest to use ISYM=3 instead. This uses symmetry to obtain the         |
|     orbitals at all k-points in the Brillouin zone, but does not apply      |
|     symmetry to the Hartree potential directly. The resultant charge        |
|     might have lower symmetry than the crystal but, at least, Hartree       |
|     and exchange are fully compatible.                                      |
|                                                                             |
 -----------------------------------------------------------------------------

 POTCAR:    PAW_PBE Cu 22Jun2005                  
   SHA256 =  0e71e558f37a4e8407882b4609ceaae59938afaad9ced71dfe8490308a0ab630 Cu/POTCAR             
   COPYR  = (c) Copyright 22Jun2005 Georg Kresse                                                    
   COPYR  = This file is part of the software VASP. Any use, copying, and all other rights are regul
   COPYR  = If you do not have a valid VASP license, you may not use, copy or distribute this file. 
   VRHFIN =Cu: d10 p1                                                                               
   LEXCH  = PE                                                                                      
   EATOM  =  1390.9808 eV,  102.2342 Ry                                                             
                                                                                                    
   TITEL  = PAW_PBE Cu 22Jun2005                                                                    
   LULTRA =        F    use ultrasoft PP ?                                                          
   IUNSCR =        1    unscreen: 0-lin 1-nonlin 2-no                                               
   RPACOR =    2.000    partial core radius                                                         
   POMASS =   63.546; ZVAL   =   11.000    mass and valenz                                          
   RCORE  =    2.300    outmost cutoff radius                                                       
   RWIGS  =    2.200; RWIGS  =    1.164    wigner-seitz radius (au A)                               
   ENMAX  =  295.446; ENMIN  =  221.585 eV                                                          
   ICORE  =        3    local potential                                                             
   LCOR   =        T    correct aug charges                                                         
   LPAW   =        T    paw PP                                                                      
   EAUG   =  586.980                                                                                
   DEXC   =    0.000                                                                                
   RMAX   =    2.344    core radius for proj-oper                                                   
   RAUG   =    1.300    factor for augmentation sphere                                              
   RDEP   =    2.302    radius for radial grids                                                     
   RDEPT  =    1.771    core radius for aug-charge                                                  
                                                                                                    
   Atomic configuration                                                                             
    9 entries                                                                                       
     n  l   j            E        occ.                                                              
     1  0  0.50     -8850.2468   2.0000                                                             
     2  0  0.50     -1062.3498   2.0000                                                             
     2  1  1.50      -916.8226   6.0000                                                             
     3  0  0.50      -114.6929   2.0000                                                             
     3  1  1.50       -72.1325   6.0000                                                             
     3  2  2.50        -5.0394  10.0000                                                             
     4  0  0.50        -4.6097   1.0000                                                             
     4  1  0.50        -4.0817   0.0000                                                             
     4  3  2.50        -1.3606   0.0000                                                             
   Description                                                                                      
     l       E           TYP  RCUT    TYP  RCUT                                                     
     2     -5.0393973     23  2.200                                                                 
     2     10.8846608     23  2.200                                                                 
     0     -4.6097109     23  2.200                                                                 
     0      8.2520465     23  2.200                                                                 
     1     -2.7211652     23  2.200                                                                 
     1     21.7055443     23  2.200                                                                 
     3      2.7211652     23  2.300                                                                 
  local pseudopotential read in
  partial core-charges read in
  partial kinetic energy density read in
  atomic valenz-charges read in
  non local Contribution for L=           2  read in
    real space projection operators read in
  non local Contribution for L=           2  read in
    real space projection operators read in
  non local Contribution for L=           0  read in
    real space projection operators read in
  non local Contribution for L=           0  read in
    real space projection operators read in
  non local Contribution for L=           1  read in
    real space projection operators read in
  non local Contribution for L=           1  read in
    real space projection operators read in
    PAW grid and wavefunctions read in
 
   number of l-projection  operators is LMAX  =           6
   number of lm-projection operators is LMMAX =          18
 
 -----------------------------------------------------------------------------
|                                                                             |
|               ----> ADVICE to this user running VASP <----                  |
|                                                                             |
|     You have a (more or less) 'small supercell' and for smaller cells       |
|     it is recommended to use the reciprocal-space projection scheme!        |
|     The real-space optimization is not efficient for small cells and it     |
|     is also less accurate ...                                               |
|     Therefore, set LREAL=.FALSE. in the INCAR file.                         |
|                                                                             |
 -----------------------------------------------------------------------------

 Optimization of the real space projectors (new method)

 maximal supplied QI-value         = 16.25
 optimisation between [QCUT,QGAM] = [ 11.54, 23.24] = [ 37.28,151.24] Ry 
 Optimized for a Real-space Cutoff    1.53 Angstroem

   l    n(q)    QCUT    max X(q) W(low)/X(q) W(high)/X(q)  e(spline) 
   2     10    11.539     4.610    0.96E-04    0.13E-03    0.19E-06
   2     10    11.539     8.522    0.16E-03    0.21E-03    0.28E-06
   0     11    11.539    51.609    0.45E-04    0.31E-04    0.11E-06
   0     11    11.539    27.747    0.39E-04    0.29E-04    0.10E-06
   1     10    11.539    20.408    0.70E-05    0.38E-04    0.18E-06
   1     10    11.539    13.425    0.66E-05    0.34E-04    0.17E-06
  PAW_PBE Cu 22Jun2005                  :
 energy of atom  1       EATOM=-1390.9808
 kinetic energy error for atom=    0.0037 (will be added to EATOM!!)
 
 
 POSCAR: cu4
  positions in direct lattice
  velocities in cartesian coordinates
 exchange correlation table for  LEXCH =        8
   RHO(1)=    0.500       N(1)  =     2000
   RHO(2)=  100.500       N(2)  =     4000
 


--------------------------------------------------------------------------------------------------------


 ion  position               nearest neighbor table
   1  0.025  0.017  0.047-   2 2.25   3 2.36   4 2.36
   2  0.974  0.983  0.953-   1 2.25   4 2.36   3 2.36
   3  0.940  0.936  0.055-   1 2.36   2 2.36
   4  0.060  0.064  0.945-   2 2.36   1 2.36
 
  LATTYP: Found a simple cubic cell.
 ALAT       =    20.0000000000
  
  Lattice vectors:
  
 A1 = (  20.0000000000,   0.0000000000,   0.0000000000)
 A2 = (   0.0000000000,  20.0000000000,   0.0000000000)
 A3 = (   0.0000000000,   0.0000000000,  20.0000000000)


Analysis of symmetry for initial positions (statically):
=====================================================================
 Subroutine PRICEL returns:
 Original cell was already a primitive cell.
 

 Routine SETGRP: Setting up the symmetry group for a 
 simple cubic supercell.


 Subroutine GETGRP returns: Found  1 space group operations
 (whereof  1 operations were pure point group operations)
 out of a pool of 48 trial point group operations.


The static configuration has the point symmetry C_1 .


Analysis of symmetry for dynamics (positions and initial velocities):
=====================================================================
 Subroutine PRICEL returns:
 Original cell was already a primitive cell.
 

 Routine SETGRP: Setting up the symmetry group for a 
 simple cubic supercell.


 Subroutine GETGRP returns: Found  1 space group operations
 (whereof  1 operations were pure point group operations)
 out of a pool of 48 trial point group operations.


The dynamic configuration has the point symmetry C_1 .


 Subroutine INISYM returns: Found  1 space group operations
 (whereof  1 operations are pure point group operations),
 and found     1 'primitive' translations


----------------------------------------------------------------------------------------

                                     Primitive cell                                     

  volume of cell :    8000.0000

  direct lattice vectors                    reciprocal lattice vectors
    20.000000000  0.000000000  0.000000000     0.050000000  0.000000000  0.000000000
     0.000000000 20.000000000  0.000000000     0.000000000  0.050000000  0.000000000
     0.000000000  0.000000000 20.000000000     0.000000000  0.000000000  0.050000000

  length of vectors
    20.000000000 20.000000000 20.000000000     0.050000000  0.050000000  0.050000000

  position of ions in fractional coordinates (direct lattice)
     0.025453805  0.017012195  0.047271049
     0.974481692  0.983054414  0.952737052
     0.940088349  0.935804674  0.055369924
     0.059976155  0.064128717  0.944621975

  ion indices of the primitive-cell ions
   primitive index   ion index
                 1           1
                 2           2
                 3           3
                 4           4

----------------------------------------------------------------------------------------

 
 
 KPOINTS: KPOINTS created by Atomic Simulation Env

Automatic generation of k-mesh.
 Grid dimensions read from file:
 generate k-points for:    1    1    1

 Generating k-lattice:

  Cartesian coordinates                     Fractional coordinates (reciprocal lattice)
     0.050000000  0.000000000  0.000000000     1.000000000  0.000000000  0.000000000
     0.000000000  0.050000000  0.000000000     0.000000000  1.000000000  0.000000000
     0.000000000  0.000000000  0.050000000     0.000000000  0.000000000  1.000000000

  Length of vectors
     0.050000000  0.050000000  0.050000000

  Shift w.r.t. Gamma in fractional coordinates (k-lattice)
     0.000000000  0.000000000  0.000000000

 
 Subroutine IBZKPT returns following result:
 ===========================================
 
 Found      1 irreducible k-points:
 
 Following reciprocal coordinates:
            Coordinates               Weight
  0.000000  0.000000  0.000000      1.000000
 
 Following cartesian coordinates:
            Coordinates               Weight
  0.000000  0.000000  0.000000      1.000000
 
 
 Subroutine IBZKPT_HF returns following result:
 ==============================================
 
 Found      1 k-points in 1st BZ
 the following      1 k-points will be used (e.g. in the exchange kernel)
 Following reciprocal coordinates:   # in IRBZ
  0.000000  0.000000  0.000000    1.00000000   1 t-inv F


--------------------------------------------------------------------------------------------------------




 Dimension of arrays:
   k-points           NKPTS =      1   k-points in BZ     NKDIM =      1   number of bands    NBANDS=     64
   number of dos      NEDOS =    301   number of ions     NIONS =      4
   non local maximal  LDIM  =      6   non local SUM 2l+1 LMDIM =     18
   total plane-waves  NPLWV = ******
   max r-space proj   IRMAX =   6426   max aug-charges    IRDMAX=  12418
   dimension x,y,z NGX =   150 NGY =  150 NGZ =  150
   dimension x,y,z NGXF=   300 NGYF=  300 NGZF=  300
   support grid    NGXF=   300 NGYF=  300 NGZF=  300
   ions per type =               4
   NGX,Y,Z   is equivalent  to a cutoff of  12.47, 12.47, 12.47 a.u.
   NGXF,Y,Z  is equivalent  to a cutoff of  24.94, 24.94, 24.94 a.u.

 SYSTEM =  MgO-rocksalt                            
 POSCAR =  cu4                                     

 Startparameter for this run:
   NWRITE =      2    write-flag & timer
   PREC   = accura    normal or accurate (medium, high low for compatibility)
   ISTART =      0    job   : 0-new  1-cont  2-samecut
   ICHARG =      2    charge: 1-file 2-atom 10-const
   ISPIN  =      1    spin polarized calculation?
   LNONCOLLINEAR =      F non collinear calculations
   LSORBIT =      F    spin-orbit coupling
   INIWAV =      1    electr: 0-lowe 1-rand  2-diag
   LASPH  =      T    aspherical Exc in radial PAW
 Electronic Relaxation 1
   ENCUT  =  520.0 eV  38.22 Ry    6.18 a.u.  37.19 37.19 37.19*2*pi/ulx,y,z
   ENINI  =  520.0     initial cutoff
   ENAUG  =  587.0 eV  augmentation charge cutoff
   NELM   =    200;   NELMIN=  8; NELMDL= -5     # of ELM steps 
   EDIFF  = 0.1E-05   stopping-criterion for ELM
   LREAL  =      T    real-space projection
   NLSPLINE    = F    spline interpolate recip. space projectors
   LCOMPAT=      F    compatible to vasp.4.4
   GGA_COMPAT  = T    GGA compatible to vasp.4.4-vasp.4.6
   LMAXPAW     = -100 max onsite density
   LMAXMIX     =    2 max onsite mixed and CHGCAR
   VOSKOWN=      0    Vosko Wilk Nusair interpolation
   ROPT   =   -0.00025
 Ionic relaxation
   EDIFFG = 0.1E-04   stopping-criterion for IOM
   NSW    =      0    number of steps for IOM
   NBLOCK =      1;   KBLOCK =      1    inner block; outer block 
   IBRION =     -1    ionic relax: 0-MD 1-quasi-New 2-CG
   NFREE  =      0    steps in history (QN), initial steepest desc. (CG)
   ISIF   =      0    stress and relaxation
   IWAVPR =     10    prediction:  0-non 1-charg 2-wave 3-comb
   ISYM   =      2    0-nonsym 1-usesym 2-fastsym
   LCORR  =      T    Harris-Foulkes like correction to forces

   POTIM  = 0.5000    time-step for ionic-motion
   TEIN   =    0.0    initial temperature
   TEBEG  =    0.0;   TEEND  =   0.0 temperature during run
   SMASS  =  -3.00    Nose mass-parameter (am)
   estimated Nose-frequenzy (Omega)   =  0.10E-29 period in steps = 0.13E+47 mass=  -0.914E-26a.u.
   SCALEE = 1.0000    scale energy and forces
   NPACO  =    256;   APACO  = 10.0  distance and # of slots for P.C.
   PSTRESS=    0.0 pullay stress

  Mass of Ions in am
   POMASS =  63.55
  Ionic Valenz
   ZVAL   =  11.00
  Atomic Wigner-Seitz radii
   RWIGS  =  -1.00
  virtual crystal weights 
   VCA    =   1.00
   NELECT =      44.0000    total number of electrons
   NUPDOWN=      -1.0000    fix difference up-down

 DOS related values:
   EMIN   =  10.00;   EMAX   =-10.00  energy-range for DOS
   EFERMI =   0.00;   METHOD = LEGACY      
   ISMEAR =     0;   SIGMA  =   0.05  broadening in eV -4-tet -1-fermi 0-gaus

 Electronic relaxation 2 (details)
   IALGO  =     58    algorithm
   LDIAG  =      T    sub-space diagonalisation (order eigenvalues)
   LSUBROT=      F    optimize rotation matrix (better conditioning)
   TURBO    =      0    0=normal 1=particle mesh
   IRESTART =      0    0=no restart 2=restart with 2 vectors
   NREBOOT  =      0    no. of reboots
   NMIN     =      0    reboot dimension
   EREF     =   0.00    reference energy to select bands
   IMIX   =      4    mixing-type and parameters
     AMIX     =   0.40;   BMIX     =  1.00
     AMIX_MAG =   1.60;   BMIX_MAG =  1.00
     AMIN     =   0.10
     WC   =   100.;   INIMIX=   1;  MIXPRE=   1;  MAXMIX= -45

 Intra band minimization:
   WEIMIN = 0.0000     energy-eigenvalue tresh-hold
   EBREAK =  0.39E-08  absolut break condition
   DEPER  =   0.30     relativ break condition  

   TIME   =   0.40     timestep for ELM

  volume/ion in A,a.u.               =    2000.00     13496.67
  Fermi-wavevector in a.u.,A,eV,Ry     =   0.288976  0.546086  1.136187  0.083507
  Thomas-Fermi vector in A             =   1.146265
 
 Write flags
   LWAVE        =      F    write WAVECAR
   LDOWNSAMPLE  =      F    k-point downsampling of WAVECAR
   LCHARG       =      F    write CHGCAR
   LVTOT        =      F    write LOCPOT, total local potential
   LVHAR        =      F    write LOCPOT, Hartree potential only
   LELF         =      F    write electronic localiz. function (ELF)
   LORBIT       =      0    0 simple, 1 ext, 2 COOP (PROOUT), +10 PAW based schemes


 Dipole corrections
   LMONO  =      F    monopole corrections only (constant potential shift)
   LDIPOL =      F    correct potential (dipole corrections)
   IDIPOL =      0    1-x, 2-y, 3-z, 4-all directions 
   EPSILON=  1.0000000 bulk dielectric constant

 Exchange correlation treatment:
   GGA     =    PE    GGA type
   LEXCH   =     8    internal setting for exchange type
   LIBXC   =     F    Libxc                    
   VOSKOWN =     0    Vosko Wilk Nusair interpolation
   EXXOEP  =     0    0=HF, 1=EXX-LHF (local Hartree Fock) 2=EXX OEP
   LHFCALC =     T    Hartree Fock is set to
   LSYMGRAD=     F    symmetrize gradient (conserves proper symmetry)
   PRECFOCK=normal    Normal, Fast or Accurate (Low or Medium for compatibility)
   LRHFCALC=     F    long range Hartree Fock
   LRSCOR  =     F    long range correlation only (use DFT for short range part)
   LTHOMAS =     F    Thomas Fermi screening in HF
   LMODELHF=     F    short range full HF, long range fraction AEXX
   FOCKCORR=     1    mode to apply convergence corrections
   LFOCKACE=     T    use Adeptively-Compressed-Exchange operator
   ENCUT4O =  -1.0   cutoff for four orbital integrals eV
   LMAXFOCK=     4    L truncation for augmentation on plane wave grid
   LMAXFOCKAE=  -1    L truncation for all-electron charge restoration on plane wave grid
   NMAXFOCKAE=   1    number of basis functions for all-electron charge restoration
   LFOCKAEDFT=     F  apply the AE augmentation even for DFT
   NKREDX  =     1    reduce k-point grid by
   NKREDY  =     1    reduce k-point grid by
   NKREDZ  =     1    reduce k-point grid by
   SHIFTRED=     F    shift reduced grid of Gamma
   HFKIDENT=     F    idential grid for each k-point
   ODDONLY =     F    use only odd q-grid points
   EVENONLY=     F    use only even q-grid points
   HFALPHA =   -1.0000 decay constant for conv. correction
   MCALPHA =    0.0000 extent of test-charge in conv. correction in multipole expansion
   AEXX    =    0.2500 exact exchange contribution
   HFSCREEN=    0.0000 screening length (either q_TF or 0.3 A-1)
   HFSCREENC=   0.0000 screening length for correlation (either q_TF or 0.3 A-1)
   HFRCUT  =    0.0000 spherical cutoff for potential kernel
   ALDAX   =    0.7500 LDA exchange part
   AGGAX   =    0.7500 GGA exchange part
   ALDAC   =    1.0000 LDA correlation
   AGGAC   =    1.0000 GGA correlation
   ENCUTFOCK=  -1.0 apply spherical cutoff to Coloumb kernel
   NBANDSGWLOW=     1    first orbital included in HF term
   NBLOCK_FOCK=    64    blocking factor in FOCK_ACC

 Linear response parameters
   LEPSILON=     F    determine dielectric tensor
   LRPA    =     F    only Hartree local field effects (RPA)
   LNABLA  =     F    use nabla operator in PAW spheres
   LVEL    =     F    velocity operator in full k-point grid
   CSHIFT  =0.1000    complex shift for real part using Kramers Kronig
   OMEGAMAX=  -1.0    maximum frequency
   DEG_THRESHOLD= 0.2000000E-02 threshold for treating states as degnerate
   RTIME   =   -0.100 relaxation time in fs
  (WPLASMAI=    0.000 imaginary part of plasma frequency in eV, 0.658/RTIME)
   DFIELD  = 0.0000000 0.0000000 0.0000000 field for delta impulse in time
 
  Optional k-point grid parameters
   LKPOINTS_OPT  =     F    use optional k-point grid
   KPOINTS_OPT_MODE=     1    mode for optional k-point grid
 
 Orbital magnetization related:
   ORBITALMAG=     F  switch on orbital magnetization
   LCHIMAG   =     F  perturbation theory with respect to B field
   DQ        =  0.001000  dq finite difference perturbation B field
   LLRAUG    =     F  two centre corrections for induced B field
   LBONE     =     F  B-component reconstruction in AE one-centre
   LVGVCALC  =     T  calculate vGv susceptibility
   LVGVAPPL  =     F  apply vGv susceptibility instead of pGv for G=0

 Random number generation:
   RANDOM_GENERATOR = DEFAULT
   PCG_SEED         = not used


--------------------------------------------------------------------------------------------------------


 Static calculation
 charge density and potential will be updated during run
 non-spin polarized calculation
 Conjugate gradient for all bands (Freysoldt, et al. PRB 79, 241103 (2009))
 preconditioned conjugated gradient                                        
 perform sub-space diagonalisation
    before iterative eigenvector-optimisation
 modified Broyden-mixing scheme, WC =      100.0
 initial mixing is a Kerker type mixing with AMIX =  0.4000 and BMIX =      1.0000
 Hartree-type preconditioning will be used
 using additional bands           42
 real space projection scheme for non local part
 use partial core corrections
 no Harris-corrections to forces 
 use gradient corrections 
 use of overlap-Matrix (Vanderbilt PP)
 Gauss-broadening in eV      SIGMA  =   0.05


--------------------------------------------------------------------------------------------------------


  energy-cutoff  :      520.00
  volume of cell :     8000.00
      direct lattice vectors                 reciprocal lattice vectors
    20.000000000  0.000000000  0.000000000     0.050000000  0.000000000  0.000000000
     0.000000000 20.000000000  0.000000000     0.000000000  0.050000000  0.000000000
     0.000000000  0.000000000 20.000000000     0.000000000  0.000000000  0.050000000

  length of vectors
    20.000000000 20.000000000 20.000000000     0.050000000  0.050000000  0.050000000


 
 k-points in units of 2pi/SCALE and weight: KPOINTS created by Atomic Simulation Env
   0.00000000  0.00000000  0.00000000       1.000
 
 k-points in reciprocal lattice and weights: KPOINTS created by Atomic Simulation Env
   0.00000000  0.00000000  0.00000000       1.000
 
 position of ions in fractional coordinates (direct lattice) 
   0.02545380  0.01701219  0.04727105
   0.97448169  0.98305441  0.95273705
   0.94008835  0.93580467  0.05536992
   0.05997615  0.06412872  0.94462197
 
 position of ions in cartesian coordinates  (Angst):
   0.50907610  0.34024389  0.94542099
  19.48963384 19.66108829 19.05474103
  18.80176697 18.71609349  1.10739849
   1.19952309  1.28257433 18.89243949
 


--------------------------------------------------------------------------------------------------------


 k-point   1 :   0.0000 0.0000 0.0000  plane waves:  215503

 maximum and minimum number of plane-waves per node :    215503   215503

 maximum number of plane-waves:    215503
 maximum index in each direction: 
   IXMAX=   37   IYMAX=   37   IZMAX=   37
   IXMIN=  -37   IYMIN=  -37   IZMIN=  -37


 serial   3D FFT for wavefunctions
 parallel 3D FFT for charge:
    minimum data exchange during FFTs selected (reduces bandwidth)


 FFT grid for exact exchange (Hartree Fock) 
  NGX =112; NGY =112; NGZ =112

 
 Radii for the augmentation spheres in the non-local exchange
 for species   1 augmentation radius   1.179 (default was   0.943)
       energy cutoff for augmentation   2080.0
 Maximum index for augmentation-charges in exchange         1210
  SETUP_FOCK is finished

 total amount of memory used by VASP MPI-rank0   231761. kBytes
=======================================================================

   base      :      30000. kBytes
   nonlr-proj:       5508. kBytes
   fftplans  :      28721. kBytes
   grid      :     157056. kBytes
   one-center:         62. kBytes
   HF        :         64. kBytes
   wavefun   :      10350. kBytes
 
     INWAV:  cpu time      0.0004: real time      0.0006
 Broyden mixing: mesh for mixing (old mesh)
   NGX = 75   NGY = 75   NGZ = 75
  (NGX  =300   NGY  =300   NGZ  =300)
  gives a total of 421875 points

 initial charge density was supplied:
 charge density of overlapping atoms calculated
 number of electron      44.0000000 magnetization 
 keeping initial charge density in first step


--------------------------------------------------------------------------------------------------------


 Maximum index for non-local projection operator         6202
 Maximum index for augmentation-charges          443 (set IRDMAX)


--------------------------------------------------------------------------------------------------------


    FEWALD:  cpu time      0.0087: real time      0.0087


--------------------------------------- Ionic step        1  -------------------------------------------




--------------------------------------- Iteration      1(   1)  ---------------------------------------


    POTLOK:  cpu time      0.9573: real time      0.9665
    SETDIJ:  cpu time      0.7794: real time      0.7802
    TRIAL :  cpu time      1.3923: real time      1.4529
    CORREC:  cpu time      0.0083: real time      0.0083
    --------------------------------------------
      LOOP:  cpu time      3.1430: real time      3.2145

 eigenvalue-minimisations  :   128
 total energy-change (2. order) :-0.1401945E+04  (-0.9276611E+03)
 number of electron      44.0000000 magnetization 
 augmentation part       44.0000000 magnetization 

 Free energy of the ion-electron system (eV)
  ---------------------------------------------------
  alpha Z        PSCENC =         1.46265607
  Ewald energy   TEWEN  =      2186.18394146
  -Hartree energ DENC   =     -7261.67922415
  -exchange      EXHF   =         0.00000000
  -V(xc)+E(xc)   XCENC  =       177.58930481
  PAW double counting   =      4912.82663951    -6821.96778073
  entropy T*S    EENTRO =        -0.00000000
  eigenvalues    EBANDS =      -148.99404389
  atomic energy  EATOM  =      5552.63330582
  ---------------------------------------------------
  free energy    TOTEN  =     -1401.94520110 eV

  energy without entropy =    -1401.94520110  energy(sigma->0) =    -1401.94520110
  exchange ACFDT corr.  =         0.00000000  see jH, gK, PRB 81, 115126


--------------------------------------------------------------------------------------------------------




--------------------------------------- Iteration      1(   2)  ---------------------------------------


    TRIAL :  cpu time      1.3090: real time      1.3104
    CORREC:  cpu time      0.0004: real time      0.0004
    --------------------------------------------
      LOOP:  cpu time      1.3127: real time      1.3174

 eigenvalue-minimisations  :   128
 total energy-change (2. order) :-0.2448649E+03  (-0.2448649E+03)
 number of electron      44.0000000 magnetization 
 augmentation part       44.0000000 magnetization 

 Free energy of the ion-electron system (eV)
  ---------------------------------------------------
  alpha Z        PSCENC =         1.46265607
  Ewald energy   TEWEN  =      2186.18394146
  -Hartree energ DENC   =     -7261.67922415
  -exchange      EXHF   =         0.00000000
  -V(xc)+E(xc)   XCENC  =       177.58930481
  PAW double counting   =      4912.82663951    -6821.96778073
  entropy T*S    EENTRO =        -0.00000000
  eigenvalues    EBANDS =      -393.85894605
  atomic energy  EATOM  =      5552.63330582
  ---------------------------------------------------
  free energy    TOTEN  =     -1646.81010325 eV

  energy without entropy =    -1646.81010325  energy(sigma->0) =    -1646.81010325
  exchange ACFDT corr.  =         0.00000000  see jH, gK, PRB 81, 115126


--------------------------------------------------------------------------------------------------------




--------------------------------------- Iteration      1(   3)  ---------------------------------------


    TRIAL :  cpu time      1.8290: real time      1.8329
    CORREC:  cpu time      0.0006: real time      0.0006
    --------------------------------------------
      LOOP:  cpu time      1.8314: real time      1.8388

 eigenvalue-minimisations  :   192
 total energy-change (2. order) :-0.1327927E+02  (-0.1327927E+02)
 number of electron      44.0000000 magnetization 
 augmentation part       44.0000000 magnetization 

 Free energy of the ion-electron system (eV)
  ---------------------------------------------------
  alpha Z        PSCENC =         1.46265607
  Ewald energy   TEWEN  =      2186.18394146
  -Hartree energ DENC   =     -7261.67922415
  -exchange      EXHF   =         0.00000000
  -V(xc)+E(xc)   XCENC  =       177.58930481
  PAW double counting   =      4912.82663951    -6821.96778073
  entropy T*S    EENTRO =        -0.00000000
  eigenvalues    EBANDS =      -407.13821983
  atomic energy  EATOM  =      5552.63330582
  ---------------------------------------------------
  free energy    TOTEN  =     -1660.08937704 eV

  energy without entropy =    -1660.08937704  energy(sigma->0) =    -1660.08937704
  exchange ACFDT corr.  =         0.00000000  see jH, gK, PRB 81, 115126


--------------------------------------------------------------------------------------------------------




--------------------------------------- Iteration      1(   4)  ---------------------------------------


    TRIAL :  cpu time      1.2721: real time      1.2728
    CORREC:  cpu time      0.0005: real time      0.0005
    --------------------------------------------
      LOOP:  cpu time      1.2745: real time      1.2787

 eigenvalue-minimisations  :   128
 total energy-change (2. order) :-0.1600170E-01  (-0.1600178E-01)
 number of electron      44.0000000 magnetization 
 augmentation part       44.0000000 magnetization 

 Free energy of the ion-electron system (eV)
  ---------------------------------------------------
  alpha Z        PSCENC =         1.46265607
  Ewald energy   TEWEN  =      2186.18394146
  -Hartree energ DENC   =     -7261.67922415
  -exchange      EXHF   =         0.00000000
  -V(xc)+E(xc)   XCENC  =       177.58930481
  PAW double counting   =      4912.82663951    -6821.96778073
  entropy T*S    EENTRO =        -0.00000000
  eigenvalues    EBANDS =      -407.15422153
  atomic energy  EATOM  =      5552.63330582
  ---------------------------------------------------
  free energy    TOTEN  =     -1660.10537874 eV

  energy without entropy =    -1660.10537874  energy(sigma->0) =    -1660.10537874
  exchange ACFDT corr.  =         0.00000000  see jH, gK, PRB 81, 115126


--------------------------------------------------------------------------------------------------------




--------------------------------------- Iteration      1(   5)  ---------------------------------------


    POTLOK:  cpu time      0.8601: real time      0.8608
    SETDIJ:  cpu time      0.7771: real time      0.7785
    TRIAL :  cpu time     18.4559: real time     18.5664
    CORREC:  cpu time      0.0006: real time      0.0006
    CHARGE:  cpu time      0.4530: real time      0.4535
    --------------------------------------------
      LOOP:  cpu time     20.5494: real time     20.6655

 eigenvalue-minimisations  :   128
 total energy-change (2. order) : 0.1651063E+04  (-0.2779368E+01)
 number of electron      44.0000016 magnetization 
 augmentation part       29.1027486 magnetization 

 Free energy of the ion-electron system (eV)
  ---------------------------------------------------
  alpha Z        PSCENC =         1.46265607
  Ewald energy   TEWEN  =      2186.18394146
  -Hartree energ DENC   =     -7261.67922415
  -exchange      EXHF   =       142.06642990
  -V(xc)+E(xc)   XCENC  =       135.39531379
  PAW double counting   =      4954.42922012    -5343.11177551
  entropy T*S    EENTRO =        -0.00000000
  eigenvalues    EBANDS =      -376.42187629
  atomic energy  EATOM  =      5552.63330582
  ---------------------------------------------------
  free energy    TOTEN  =        -9.04200880 eV

  energy without entropy =       -9.04200880  energy(sigma->0) =       -9.04200880
  exchange ACFDT corr.  =        -0.00000000  see jH, gK, PRB 81, 115126


--------------------------------------------------------------------------------------------------------




--------------------------------------- Iteration      1(   6)  ---------------------------------------


    POTLOK:  cpu time      0.9591: real time      0.9599
    SETDIJ:  cpu time      0.7777: real time      0.7784
    TRIAL :  cpu time     16.7942: real time     16.8532
    CORREC:  cpu time     18.5796: real time     18.7094
    CHARGE:  cpu time      0.4921: real time      0.5411
    --------------------------------------------
      LOOP:  cpu time     37.6058: real time     37.8490

 eigenvalue-minimisations  :     0
 total energy-change (2. order) : 0.2791122E+01  (-0.1254586E+01)
 number of electron      44.0000015 magnetization 
 augmentation part       28.5570210 magnetization 

 Free energy of the ion-electron system (eV)
  ---------------------------------------------------
  alpha Z        PSCENC =         1.46265607
  Ewald energy   TEWEN  =      2186.18394146
  -Hartree energ DENC   =     -7444.19390116
  -exchange      EXHF   =       137.01479845
  -V(xc)+E(xc)   XCENC  =       138.09297570
  PAW double counting   =      5428.61612282    -5842.39755217
  entropy T*S    EENTRO =        -0.00000000
  eigenvalues    EBANDS =      -163.66323394
  atomic energy  EATOM  =      5552.63330582
  ---------------------------------------------------
  free energy    TOTEN  =        -6.25088694 eV

  energy without entropy =       -6.25088694  energy(sigma->0) =       -6.25088694
  exchange ACFDT corr.  =        -0.00000000  see jH, gK, PRB 81, 115126


--------------------------------------------------------------------------------------------------------




--------------------------------------- Iteration      1(   7)  ---------------------------------------


    POTLOK:  cpu time      0.9797: real time      0.9806
    SETDIJ:  cpu time      0.7686: real time      0.7694
    TRIAL :  cpu time     16.5664: real time     16.5798
    CORREC:  cpu time     18.7121: real time     18.8491
    CHARGE:  cpu time      0.4721: real time      0.4764
    --------------------------------------------
      LOOP:  cpu time     37.5016: real time     37.6617

 eigenvalue-minimisations  :     0
 total energy-change (2. order) :-0.1302449E+01  (-0.6001721E+00)
 number of electron      44.0000015 magnetization 
 augmentation part       28.6577200 magnetization 

 Free energy of the ion-electron system (eV)
  ---------------------------------------------------
  alpha Z        PSCENC =         1.46265607
  Ewald energy   TEWEN  =      2186.18394146
  -Hartree energ DENC   =     -7350.37073574
  -exchange      EXHF   =       135.04244890
  -V(xc)+E(xc)   XCENC  =       135.63699774
  PAW double counting   =      5368.54370582    -5760.96326464
  entropy T*S    EENTRO =        -0.00000000
  eigenvalues    EBANDS =      -275.72239143
  atomic energy  EATOM  =      5552.63330582
  ---------------------------------------------------
  free energy    TOTEN  =        -7.55333600 eV

  energy without entropy =       -7.55333600  energy(sigma->0) =       -7.55333600
  exchange ACFDT corr.  =        -0.00000000  see jH, gK, PRB 81, 115126


--------------------------------------------------------------------------------------------------------




--------------------------------------- Iteration      1(   8)  ---------------------------------------


    POTLOK:  cpu time      0.9976: real time      0.9983
    SETDIJ:  cpu time      0.7654: real time      0.7661
    TRIAL :  cpu time     16.7528: real time     16.7666
    CORREC:  cpu time     18.4962: real time     18.6488
    CHARGE:  cpu time      0.5168: real time      0.5460
    --------------------------------------------
      LOOP:  cpu time     37.5313: real time     37.7324

 eigenvalue-minimisations  :     0
 total energy-change (2. order) :-0.5991874E+00  (-0.1253975E+00)
 number of electron      44.0000016 magnetization 
 augmentation part       28.7603451 magnetization 

 Free energy of the ion-electron system (eV)
  ---------------------------------------------------
  alpha Z        PSCENC =         1.46265607
  Ewald energy   TEWEN  =      2186.18394146
  -Hartree energ DENC   =     -7315.67568812
  -exchange      EXHF   =       134.78816293
  -V(xc)+E(xc)   XCENC  =       135.51908902
  PAW double counting   =      5329.26916347    -5724.87187405
  entropy T*S    EENTRO =        -0.00000000
  eigenvalues    EBANDS =      -307.46127997
  atomic energy  EATOM  =      5552.63330582
  ---------------------------------------------------
  free energy    TOTEN  =        -8.15252338 eV

  energy without entropy =       -8.15252338  energy(sigma->0) =       -8.15252338
  exchange ACFDT corr.  =        -0.00000000  see jH, gK, PRB 81, 115126


--------------------------------------------------------------------------------------------------------




--------------------------------------- Iteration      1(   9)  ---------------------------------------


    POTLOK:  cpu time      0.9929: real time      0.9936
    SETDIJ:  cpu time      0.7678: real time      0.7686
    TRIAL :  cpu time     16.7837: real time     16.8154
    CORREC:  cpu time     18.7477: real time     18.8797
    CHARGE:  cpu time      0.4627: real time      0.4839
    --------------------------------------------
      LOOP:  cpu time     37.7606: real time     37.9473

 eigenvalue-minimisations  :     0
 total energy-change (2. order) :-0.1252251E+00  (-0.5648997E-01)
 number of electron      44.0000015 magnetization 
 augmentation part       28.6673830 magnetization 

 Free energy of the ion-electron system (eV)
  ---------------------------------------------------
  alpha Z        PSCENC =         1.46265607
  Ewald energy   TEWEN  =      2186.18394146
  -Hartree energ DENC   =     -7322.52786090
  -exchange      EXHF   =       135.01363201
  -V(xc)+E(xc)   XCENC  =       135.85549138
  PAW double counting   =      5334.26263913    -5734.10233427
  entropy T*S    EENTRO =        -0.00000000
  eigenvalues    EBANDS =      -297.05921920
  atomic energy  EATOM  =      5552.63330582
  ---------------------------------------------------
  free energy    TOTEN  =        -8.27774851 eV

  energy without entropy =       -8.27774851  energy(sigma->0) =       -8.27774851
  exchange ACFDT corr.  =        -0.00000000  see jH, gK, PRB 81, 115126


--------------------------------------------------------------------------------------------------------




--------------------------------------- Iteration      1(  10)  ---------------------------------------


    POTLOK:  cpu time      0.9901: real time      0.9910
    SETDIJ:  cpu time      0.7660: real time      0.7668
    TRIAL :  cpu time     16.4772: real time     16.4904
    CORREC:  cpu time     18.4922: real time     18.6545
    CHARGE:  cpu time      0.5145: real time      0.5294
    --------------------------------------------
      LOOP:  cpu time     37.2470: real time     37.4390

 eigenvalue-minimisations  :     0
 total energy-change (2. order) :-0.5616821E-01  (-0.7403935E-01)
 number of electron      44.0000016 magnetization 
 augmentation part       28.6590509 magnetization 

 Free energy of the ion-electron system (eV)
  ---------------------------------------------------
  alpha Z        PSCENC =         1.46265607
  Ewald energy   TEWEN  =      2186.18394146
  -Hartree energ DENC   =     -7308.39449979
  -exchange      EXHF   =       134.69486915
  -V(xc)+E(xc)   XCENC  =       135.46439110
  PAW double counting   =      5329.13509977    -5725.72036958
  entropy T*S    EENTRO =        -0.00000000
  eigenvalues    EBANDS =      -313.79331072
  atomic energy  EATOM  =      5552.63330582
  ---------------------------------------------------
  free energy    TOTEN  =        -8.33391672 eV

  energy without entropy =       -8.33391672  energy(sigma->0) =       -8.33391672
  exchange ACFDT corr.  =        -0.00000000  see jH, gK, PRB 81, 115126


--------------------------------------------------------------------------------------------------------




--------------------------------------- Iteration      1(  11)  ---------------------------------------


    POTLOK:  cpu time      0.9848: real time      0.9856
    SETDIJ:  cpu time      0.7757: real time      0.7764
    TRIAL :  cpu time     16.6059: real time     16.6201
    CORREC:  cpu time     18.5124: real time     18.6745
    CHARGE:  cpu time      0.4625: real time      0.4705
    --------------------------------------------
      LOOP:  cpu time     37.3449: real time     37.5347

 eigenvalue-minimisations  :     0
 total energy-change (2. order) :-0.7374046E-01  (-0.1401547E-01)
 number of electron      44.0000016 magnetization 
 augmentation part       28.7029823 magnetization 

 Free energy of the ion-electron system (eV)
  ---------------------------------------------------
  alpha Z        PSCENC =         1.46265607
  Ewald energy   TEWEN  =      2186.18394146
  -Hartree energ DENC   =     -7304.73679650
  -exchange      EXHF   =       134.65644541
  -V(xc)+E(xc)   XCENC  =       135.42870072
  PAW double counting   =      5331.12488366    -5727.40182523
  entropy T*S    EENTRO =        -0.00000000
  eigenvalues    EBANDS =      -317.75896860
  atomic energy  EATOM  =      5552.63330582
  ---------------------------------------------------
  free energy    TOTEN  =        -8.40765718 eV

  energy without entropy =       -8.40765718  energy(sigma->0) =       -8.40765718
  exchange ACFDT corr.  =        -0.00000000  see jH, gK, PRB 81, 115126


--------------------------------------------------------------------------------------------------------




--------------------------------------- Iteration      1(  12)  ---------------------------------------


    POTLOK:  cpu time      0.9804: real time      0.9811
    SETDIJ:  cpu time      0.7794: real time      0.7801
    TRIAL :  cpu time     16.5518: real time     16.5654
    CORREC:  cpu time     18.5127: real time     18.6855
    CHARGE:  cpu time      0.4532: real time      0.4560
    --------------------------------------------
      LOOP:  cpu time     37.2821: real time     37.4767

 eigenvalue-minimisations  :     0
 total energy-change (2. order) :-0.1401251E-01  (-0.9148983E-02)
 number of electron      44.0000016 magnetization 
 augmentation part       28.6739727 magnetization 

 Free energy of the ion-electron system (eV)
  ---------------------------------------------------
  alpha Z        PSCENC =         1.46265607
  Ewald energy   TEWEN  =      2186.18394146
  -Hartree energ DENC   =     -7308.99158729
  -exchange      EXHF   =       134.77209847
  -V(xc)+E(xc)   XCENC  =       135.58654281
  PAW double counting   =      5333.62408077    -5731.54233753
  entropy T*S    EENTRO =        -0.00000000
  eigenvalues    EBANDS =      -312.15037028
  atomic energy  EATOM  =      5552.63330582
  ---------------------------------------------------
  free energy    TOTEN  =        -8.42166969 eV

  energy without entropy =       -8.42166969  energy(sigma->0) =       -8.42166969
  exchange ACFDT corr.  =        -0.00000000  see jH, gK, PRB 81, 115126


--------------------------------------------------------------------------------------------------------




--------------------------------------- Iteration      1(  13)  ---------------------------------------


    POTLOK:  cpu time      0.9742: real time      0.9759
    SETDIJ:  cpu time      0.7739: real time      0.7739
    TRIAL :  cpu time     16.5488: real time     16.5630
    CORREC:  cpu time     18.7439: real time     18.9158
    CHARGE:  cpu time      0.5819: real time      0.5568
    --------------------------------------------
      LOOP:  cpu time     37.6258: real time     37.7921

 eigenvalue-minimisations  :     0
 total energy-change (2. order) :-0.9187114E-02  (-0.4072566E-02)
 number of electron      44.0000016 magnetization 
 augmentation part       28.6666132 magnetization 

 Free energy of the ion-electron system (eV)
  ---------------------------------------------------
  alpha Z        PSCENC =         1.46265607
  Ewald energy   TEWEN  =      2186.18394146
  -Hartree energ DENC   =     -7303.45936107
  -exchange      EXHF   =       134.65402558
  -V(xc)+E(xc)   XCENC  =       135.44587044
  PAW double counting   =      5330.32574080    -5727.16185161
  entropy T*S    EENTRO =        -0.00000000
  eigenvalues    EBANDS =      -318.51518430
  atomic energy  EATOM  =      5552.63330582
  ---------------------------------------------------
  free energy    TOTEN  =        -8.43085680 eV

  energy without entropy =       -8.43085680  energy(sigma->0) =       -8.43085680
  exchange ACFDT corr.  =        -0.00000000  see jH, gK, PRB 81, 115126


--------------------------------------------------------------------------------------------------------




--------------------------------------- Iteration      1(  14)  ---------------------------------------


    POTLOK:  cpu time      0.9727: real time      0.9734
    SETDIJ:  cpu time      0.7763: real time      0.7771
    TRIAL :  cpu time     16.5133: real time     16.5276
    CORREC:  cpu time     18.5897: real time     18.6952
    CHARGE:  cpu time      0.5852: real time      0.6478
    --------------------------------------------
      LOOP:  cpu time     37.4403: real time     37.6282

 eigenvalue-minimisations  :     0
 total energy-change (2. order) :-0.4070989E-02  (-0.8695952E-03)
 number of electron      44.0000016 magnetization 
 augmentation part       28.6802226 magnetization 

 Free energy of the ion-electron system (eV)
  ---------------------------------------------------
  alpha Z        PSCENC =         1.46265607
  Ewald energy   TEWEN  =      2186.18394146
  -Hartree energ DENC   =     -7301.09790754
  -exchange      EXHF   =       134.60751887
  -V(xc)+E(xc)   XCENC  =       135.39484877
  PAW double counting   =      5327.76437510    -5724.32227293
  entropy T*S    EENTRO =        -0.00000000
  eigenvalues    EBANDS =      -321.06139342
  atomic energy  EATOM  =      5552.63330582
  ---------------------------------------------------
  free energy    TOTEN  =        -8.43492779 eV

  energy without entropy =       -8.43492779  energy(sigma->0) =       -8.43492779
  exchange ACFDT corr.  =        -0.00000000  see jH, gK, PRB 81, 115126


--------------------------------------------------------------------------------------------------------




--------------------------------------- Iteration      1(  15)  ---------------------------------------


    POTLOK:  cpu time      1.0139: real time      0.9894
    SETDIJ:  cpu time      0.7807: real time      0.7814
    TRIAL :  cpu time     16.5547: real time     16.5685
    CORREC:  cpu time     18.6083: real time     18.7249
    CHARGE:  cpu time      0.4896: real time      0.5214
    --------------------------------------------
      LOOP:  cpu time     37.4511: real time     37.6001

 eigenvalue-minimisations  :     0
 total energy-change (2. order) :-0.8680245E-03  (-0.8967778E-03)
 number of electron      44.0000016 magnetization 
 augmentation part       28.6758294 magnetization 

 Free energy of the ion-electron system (eV)
  ---------------------------------------------------
  alpha Z        PSCENC =         1.46265607
  Ewald energy   TEWEN  =      2186.18394146
  -Hartree energ DENC   =     -7302.87341944
  -exchange      EXHF   =       134.64813658
  -V(xc)+E(xc)   XCENC  =       135.44828726
  PAW double counting   =      5328.40805669    -5725.48577687
  entropy T*S    EENTRO =        -0.00000000
  eigenvalues    EBANDS =      -318.86098338
  atomic energy  EATOM  =      5552.63330582
  ---------------------------------------------------
  free energy    TOTEN  =        -8.43579582 eV

  energy without entropy =       -8.43579582  energy(sigma->0) =       -8.43579582
  exchange ACFDT corr.  =        -0.00000000  see jH, gK, PRB 81, 115126


--------------------------------------------------------------------------------------------------------




--------------------------------------- Iteration      1(  16)  ---------------------------------------


    POTLOK:  cpu time      0.9640: real time      0.9647
    SETDIJ:  cpu time      0.7922: real time      0.7929
    TRIAL :  cpu time     16.5192: real time     16.5329
    CORREC:  cpu time     18.5607: real time     18.6842
    CHARGE:  cpu time      0.5111: real time      0.5361
    --------------------------------------------
      LOOP:  cpu time     37.3533: real time     37.5209

 eigenvalue-minimisations  :     0
 total energy-change (2. order) :-0.8968267E-03  (-0.2447301E-03)
 number of electron      44.0000016 magnetization 
 augmentation part       28.6723851 magnetization 

 Free energy of the ion-electron system (eV)
  ---------------------------------------------------
  alpha Z        PSCENC =         1.46265607
  Ewald energy   TEWEN  =      2186.18394146
  -Hartree energ DENC   =     -7302.79723747
  -exchange      EXHF   =       134.63645540
  -V(xc)+E(xc)   XCENC  =       135.43444734
  PAW double counting   =      5327.95065601    -5724.89356985
  entropy T*S    EENTRO =        -0.00000000
  eigenvalues    EBANDS =      -319.04734743
  atomic energy  EATOM  =      5552.63330582
  ---------------------------------------------------
  free energy    TOTEN  =        -8.43669264 eV

  energy without entropy =       -8.43669264  energy(sigma->0) =       -8.43669264
  exchange ACFDT corr.  =        -0.00000000  see jH, gK, PRB 81, 115126


--------------------------------------------------------------------------------------------------------




--------------------------------------- Iteration      1(  17)  ---------------------------------------


    POTLOK:  cpu time      0.9368: real time      0.9375
    SETDIJ:  cpu time      0.7768: real time      0.7776
    TRIAL :  cpu time     16.5467: real time     16.5609
    CORREC:  cpu time     18.5523: real time     18.6816
    CHARGE:  cpu time      0.4869: real time      0.5362
    --------------------------------------------
      LOOP:  cpu time     37.3023: real time     37.5003

 eigenvalue-minimisations  :     0
 total energy-change (2. order) :-0.2447327E-03  (-0.2093056E-03)
 number of electron      44.0000016 magnetization 
 augmentation part       28.6747521 magnetization 

 Free energy of the ion-electron system (eV)
  ---------------------------------------------------
  alpha Z        PSCENC =         1.46265607
  Ewald energy   TEWEN  =      2186.18394146
  -Hartree energ DENC   =     -7302.39308591
  -exchange      EXHF   =       134.62615045
  -V(xc)+E(xc)   XCENC  =       135.42139077
  PAW double counting   =      5327.52975083    -5724.34236323
  entropy T*S    EENTRO =        -0.00000000
  eigenvalues    EBANDS =      -319.55868364
  atomic energy  EATOM  =      5552.63330582
  ---------------------------------------------------
  free energy    TOTEN  =        -8.43693738 eV

  energy without entropy =       -8.43693738  energy(sigma->0) =       -8.43693738
  exchange ACFDT corr.  =        -0.00000000  see jH, gK, PRB 81, 115126


--------------------------------------------------------------------------------------------------------




--------------------------------------- Iteration      1(  18)  ---------------------------------------


    POTLOK:  cpu time      0.9260: real time      0.9266
    SETDIJ:  cpu time      0.7737: real time      0.7744
    TRIAL :  cpu time     16.3835: real time     16.3966
    CORREC:  cpu time     18.4952: real time     18.6264
    CHARGE:  cpu time      0.4954: real time      0.5378
    --------------------------------------------
      LOOP:  cpu time     37.0814: real time     37.2696

 eigenvalue-minimisations  :     0
 total energy-change (2. order) :-0.2092360E-03  (-0.1294205E-03)
 number of electron      44.0000016 magnetization 
 augmentation part       28.6743904 magnetization 

 Free energy of the ion-electron system (eV)
  ---------------------------------------------------
  alpha Z        PSCENC =         1.46265607
  Ewald energy   TEWEN  =      2186.18394146
  -Hartree energ DENC   =     -7302.72878046
  -exchange      EXHF   =       134.63476144
  -V(xc)+E(xc)   XCENC  =       135.43227784
  PAW double counting   =      5327.56047253    -5724.46437531
  entropy T*S    EENTRO =        -0.00000000
  eigenvalues    EBANDS =      -319.15140600
  atomic energy  EATOM  =      5552.63330582
  ---------------------------------------------------
  free energy    TOTEN  =        -8.43714661 eV

  energy without entropy =       -8.43714661  energy(sigma->0) =       -8.43714661
  exchange ACFDT corr.  =        -0.00000000  see jH, gK, PRB 81, 115126


--------------------------------------------------------------------------------------------------------




--------------------------------------- Iteration      1(  19)  ---------------------------------------


    POTLOK:  cpu time      0.9027: real time      0.9033
    SETDIJ:  cpu time      0.7682: real time      0.7690
    TRIAL :  cpu time     16.6196: real time     16.6339
    CORREC:  cpu time     18.7997: real time     18.9491
    CHARGE:  cpu time      0.5137: real time      0.5149
    --------------------------------------------
      LOOP:  cpu time     37.6085: real time     37.7790

 eigenvalue-minimisations  :     0
 total energy-change (2. order) :-0.1287803E-03  (-0.4030711E-04)
 number of electron      44.0000016 magnetization 
 augmentation part       28.6739163 magnetization 

 Free energy of the ion-electron system (eV)
  ---------------------------------------------------
  alpha Z        PSCENC =         1.46265607
  Ewald energy   TEWEN  =      2186.18394146
  -Hartree energ DENC   =     -7302.86968267
  -exchange      EXHF   =       134.63512121
  -V(xc)+E(xc)   XCENC  =       135.43282721
  PAW double counting   =      5327.65821668    -5724.57731819
  entropy T*S    EENTRO =        -0.00000000
  eigenvalues    EBANDS =      -318.99634298
  atomic energy  EATOM  =      5552.63330582
  ---------------------------------------------------
  free energy    TOTEN  =        -8.43727539 eV

  energy without entropy =       -8.43727539  energy(sigma->0) =       -8.43727539
  exchange ACFDT corr.  =        -0.00000000  see jH, gK, PRB 81, 115126


--------------------------------------------------------------------------------------------------------




--------------------------------------- Iteration      1(  20)  ---------------------------------------


    POTLOK:  cpu time      0.9097: real time      0.9105
    SETDIJ:  cpu time      0.7758: real time      0.7766
    TRIAL :  cpu time     16.5796: real time     16.5932
    CORREC:  cpu time     18.6732: real time     18.8330
    CHARGE:  cpu time      0.4698: real time      0.4966
    --------------------------------------------
      LOOP:  cpu time     37.4170: real time     37.6190

 eigenvalue-minimisations  :     0
 total energy-change (2. order) :-0.4045369E-04  (-0.4760900E-04)
 number of electron      44.0000016 magnetization 
 augmentation part       28.6737354 magnetization 

 Free energy of the ion-electron system (eV)
  ---------------------------------------------------
  alpha Z        PSCENC =         1.46265607
  Ewald energy   TEWEN  =      2186.18394146
  -Hartree energ DENC   =     -7302.86418754
  -exchange      EXHF   =       134.63384299
  -V(xc)+E(xc)   XCENC  =       135.43131724
  PAW double counting   =      5327.65460602    -5724.56575261
  entropy T*S    EENTRO =        -0.00000000
  eigenvalues    EBANDS =      -319.00704529
  atomic energy  EATOM  =      5552.63330582
  ---------------------------------------------------
  free energy    TOTEN  =        -8.43731585 eV

  energy without entropy =       -8.43731585  energy(sigma->0) =       -8.43731585
  exchange ACFDT corr.  =        -0.00000000  see jH, gK, PRB 81, 115126


--------------------------------------------------------------------------------------------------------




--------------------------------------- Iteration      1(  21)  ---------------------------------------


    POTLOK:  cpu time      0.9000: real time      0.9008
    SETDIJ:  cpu time      0.7696: real time      0.7702
    TRIAL :  cpu time     16.7843: real time     16.7980
    CORREC:  cpu time     18.6841: real time     18.8460
    CHARGE:  cpu time      0.4953: real time      0.5153
    --------------------------------------------
      LOOP:  cpu time     37.6397: real time     37.8405

 eigenvalue-minimisations  :     0
 total energy-change (2. order) :-0.4745500E-04  (-0.1277207E-04)
 number of electron      44.0000016 magnetization 
 augmentation part       28.6740831 magnetization 

 Free energy of the ion-electron system (eV)
  ---------------------------------------------------
  alpha Z        PSCENC =         1.46265607
  Ewald energy   TEWEN  =      2186.18394146
  -Hartree energ DENC   =     -7302.85886492
  -exchange      EXHF   =       134.63355888
  -V(xc)+E(xc)   XCENC  =       135.43091894
  PAW double counting   =      5327.66160343    -5724.57490972
  entropy T*S    EENTRO =        -0.00000000
  eigenvalues    EBANDS =      -319.00957327
  atomic energy  EATOM  =      5552.63330582
  ---------------------------------------------------
  free energy    TOTEN  =        -8.43736330 eV

  energy without entropy =       -8.43736330  energy(sigma->0) =       -8.43736330
  exchange ACFDT corr.  =        -0.00000000  see jH, gK, PRB 81, 115126


--------------------------------------------------------------------------------------------------------




--------------------------------------- Iteration      1(  22)  ---------------------------------------


    POTLOK:  cpu time      0.9112: real time      0.9121
    SETDIJ:  cpu time      0.7654: real time      0.7661
    TRIAL :  cpu time     16.7864: real time     16.8004
    CORREC:  cpu time     18.6915: real time     18.8582
    CHARGE:  cpu time      0.5222: real time      0.5074
    --------------------------------------------
      LOOP:  cpu time     37.6800: real time     37.8511

 eigenvalue-minimisations  :     0
 total energy-change (2. order) :-0.1278004E-04  (-0.8897343E-05)
 number of electron      44.0000016 magnetization 
 augmentation part       28.6738703 magnetization 

 Free energy of the ion-electron system (eV)
  ---------------------------------------------------
  alpha Z        PSCENC =         1.46265607
  Ewald energy   TEWEN  =      2186.18394146
  -Hartree energ DENC   =     -7302.94735233
  -exchange      EXHF   =       134.63540412
  -V(xc)+E(xc)   XCENC  =       135.43293011
  PAW double counting   =      5327.80428411    -5724.73297640
  entropy T*S    EENTRO =        -0.00000000
  eigenvalues    EBANDS =      -318.90956905
  atomic energy  EATOM  =      5552.63330582
  ---------------------------------------------------
  free energy    TOTEN  =        -8.43737608 eV

  energy without entropy =       -8.43737608  energy(sigma->0) =       -8.43737608
  exchange ACFDT corr.  =        -0.00000000  see jH, gK, PRB 81, 115126


--------------------------------------------------------------------------------------------------------




--------------------------------------- Iteration      1(  23)  ---------------------------------------


    POTLOK:  cpu time      0.8988: real time      0.8996
    SETDIJ:  cpu time      0.7696: real time      0.7703
    TRIAL :  cpu time     16.7881: real time     16.8018
    CORREC:  cpu time     18.6855: real time     18.8446
    CHARGE:  cpu time      0.4816: real time      0.4689
    --------------------------------------------
      LOOP:  cpu time     37.6300: real time     37.7931

 eigenvalue-minimisations  :     0
 total energy-change (2. order) :-0.8925543E-05  (-0.4525214E-05)
 number of electron      44.0000016 magnetization 
 augmentation part       28.6735012 magnetization 

 Free energy of the ion-electron system (eV)
  ---------------------------------------------------
  alpha Z        PSCENC =         1.46265607
  Ewald energy   TEWEN  =      2186.18394146
  -Hartree energ DENC   =     -7302.95663953
  -exchange      EXHF   =       134.63530900
  -V(xc)+E(xc)   XCENC  =       135.43250045
  PAW double counting   =      5327.91001730    -5724.83157470
  entropy T*S    EENTRO =        -0.00000000
  eigenvalues    EBANDS =      -318.90690087
  atomic energy  EATOM  =      5552.63330582
  ---------------------------------------------------
  free energy    TOTEN  =        -8.43738501 eV

  energy without entropy =       -8.43738501  energy(sigma->0) =       -8.43738501
  exchange ACFDT corr.  =        -0.00000000  see jH, gK, PRB 81, 115126


--------------------------------------------------------------------------------------------------------




--------------------------------------- Iteration      1(  24)  ---------------------------------------


    POTLOK:  cpu time      0.8964: real time      0.8972
    SETDIJ:  cpu time      0.7760: real time      0.7759
    TRIAL :  cpu time     16.7183: real time     16.7329
    CORREC:  cpu time     18.9044: real time     19.0461
    CHARGE:  cpu time      0.4663: real time      0.4680
    --------------------------------------------
      LOOP:  cpu time     37.7648: real time     37.9284

 eigenvalue-minimisations  :     0
 total energy-change (2. order) :-0.4546916E-05  (-0.1392248E-05)
 number of electron      44.0000016 magnetization 
 augmentation part       28.6739946 magnetization 

 Free energy of the ion-electron system (eV)
  ---------------------------------------------------
  alpha Z        PSCENC =         1.46265607
  Ewald energy   TEWEN  =      2186.18394146
  -Hartree energ DENC   =     -7302.87780247
  -exchange      EXHF   =       134.63403450
  -V(xc)+E(xc)   XCENC  =       135.43079292
  PAW double counting   =      5327.92892136    -5724.83413398
  entropy T*S    EENTRO =        -0.00000000
  eigenvalues    EBANDS =      -318.99910524
  atomic energy  EATOM  =      5552.63330582
  ---------------------------------------------------
  free energy    TOTEN  =        -8.43738955 eV

  energy without entropy =       -8.43738955  energy(sigma->0) =       -8.43738955
  exchange ACFDT corr.  =        -0.00000000  see jH, gK, PRB 81, 115126


--------------------------------------------------------------------------------------------------------




--------------------------------------- Iteration      1(  25)  ---------------------------------------


    POTLOK:  cpu time      0.8954: real time      0.8962
    SETDIJ:  cpu time      0.7693: real time      0.7701
    TRIAL :  cpu time     16.8014: real time     16.8148
    CORREC:  cpu time     18.9629: real time     19.0343
    CHARGE:  cpu time      0.5701: real time      0.6377
    --------------------------------------------
      LOOP:  cpu time     38.0027: real time     38.1606

 eigenvalue-minimisations  :     0
 total energy-change (2. order) :-0.1367045E-05  (-0.1178982E-05)
 number of electron      44.0000016 magnetization 
 augmentation part       28.6739460 magnetization 

 Free energy of the ion-electron system (eV)
  ---------------------------------------------------
  alpha Z        PSCENC =         1.46265607
  Ewald energy   TEWEN  =      2186.18394146
  -Hartree energ DENC   =     -7302.92957266
  -exchange      EXHF   =       134.63554156
  -V(xc)+E(xc)   XCENC  =       135.43269462
  PAW double counting   =      5327.97649000    -5724.89913584
  entropy T*S    EENTRO =        -0.00000000
  eigenvalues    EBANDS =      -318.93331195
  atomic energy  EATOM  =      5552.63330582
  ---------------------------------------------------
  free energy    TOTEN  =        -8.43739092 eV

  energy without entropy =       -8.43739092  energy(sigma->0) =       -8.43739092
  exchange ACFDT corr.  =        -0.00000000  see jH, gK, PRB 81, 115126


--------------------------------------------------------------------------------------------------------




--------------------------------------- Iteration      1(  26)  ---------------------------------------


    POTLOK:  cpu time      0.9257: real time      0.9264
    SETDIJ:  cpu time      0.7730: real time      0.7738
    TRIAL :  cpu time     16.7751: real time     16.7891
    CORREC:  cpu time     18.8171: real time     18.9277
    CHARGE:  cpu time      0.5786: real time      0.6384
    --------------------------------------------
      LOOP:  cpu time     37.8783: real time     38.0642

 eigenvalue-minimisations  :     0
 total energy-change (2. order) :-0.1184736E-05  (-0.3206099E-06)
 number of electron      44.0000016 magnetization 
 augmentation part       28.6737712 magnetization 

 Free energy of the ion-electron system (eV)
  ---------------------------------------------------
  alpha Z        PSCENC =         1.46265607
  Ewald energy   TEWEN  =      2186.18394146
  -Hartree energ DENC   =     -7302.91271929
  -exchange      EXHF   =       134.63530548
  -V(xc)+E(xc)   XCENC  =       135.43238620
  PAW double counting   =      5327.97811641    -5724.89815866
  entropy T*S    EENTRO =        -0.00000000
  eigenvalues    EBANDS =      -318.95222560
  atomic energy  EATOM  =      5552.63330582
  ---------------------------------------------------
  free energy    TOTEN  =        -8.43739211 eV

  energy without entropy =       -8.43739211  energy(sigma->0) =       -8.43739211
  exchange ACFDT corr.  =        -0.00000000  see jH, gK, PRB 81, 115126


--------------------------------------------------------------------------------------------------------




--------------------------------------- Iteration      1(  27)  ---------------------------------------


    POTLOK:  cpu time      0.9412: real time      0.9110
    SETDIJ:  cpu time      0.7758: real time      0.7765
    TRIAL :  cpu time     16.7576: real time     16.7717
    CORREC:  cpu time     18.9741: real time     19.0705
    EDDIAG:  cpu time     16.5949: real time     16.6712
    CHARGE:  cpu time      0.4572: real time      0.5427
    --------------------------------------------
      LOOP:  cpu time     54.5053: real time     54.7518

 eigenvalue-minimisations  :     0
 total energy-change (2. order) :-0.3205232E-06  (-0.2389181E-06)
 number of electron      44.0000016 magnetization 
 augmentation part       28.6738901 magnetization 

 Free energy of the ion-electron system (eV)
  ---------------------------------------------------
  alpha Z        PSCENC =         1.46265607
  Ewald energy   TEWEN  =      2186.18394146
  -Hartree energ DENC   =     -7302.88564656
  -exchange      EXHF   =       134.63503599
  -V(xc)+E(xc)   XCENC  =       135.43163426
  PAW double counting   =      5327.95994885    -5724.87333846
  entropy T*S    EENTRO =        -0.00000000
  eigenvalues    EBANDS =      -318.98460484
  atomic energy  EATOM  =      5552.63330582
  ---------------------------------------------------
  free energy    TOTEN  =        -8.43739243 eV

  energy without entropy =       -8.43739243  energy(sigma->0) =       -8.43739243
  exchange ACFDT corr.  =        -0.00000000  see jH, gK, PRB 81, 115126


--------------------------------------------------------------------------------------------------------


  average scaling for gradient   0.8795


 average (electrostatic) potential at core
  the test charge radii are     0.9430
  (the norm of the test charge is              1.0000)
       1 -65.8975       2 -65.8975       3 -65.3415       4 -65.3414
 
 
 
 E-fermi :  -4.6903     XC(G=0):  -0.1978     alpha+bet : -0.0793

 Fermi energy:        -4.6903447763

 k-point     1 :       0.0000    0.0000    0.0000
  band No.  band energies     occupation 
      1      -9.0249      2.00000
      2      -8.7728      2.00000
      3      -8.2305      2.00000
      4      -8.1903      2.00000
      5      -8.1335      2.00000
      6      -7.9480      2.00000
      7      -7.6039      2.00000
      8      -7.4464      2.00000
      9      -7.3778      2.00000
     10      -7.1707      2.00000
     11      -7.1240      2.00000
     12      -6.9670      2.00000
     13      -6.9598      2.00000
     14      -6.9067      2.00000
     15      -6.8927      2.00000
     16      -6.7741      2.00000
     17      -6.7168      2.00000
     18      -6.7149      2.00000
     19      -6.6550      2.00000
     20      -6.6537      2.00000
     21      -6.2759      2.00000
     22      -4.9429      2.00000
     23      -2.6280      0.00000
     24      -1.4116      0.00000
     25      -1.2137      0.00000
     26      -0.2973      0.00000
     27      -0.2239      0.00000
     28       0.1302      0.00000
     29       0.1359      0.00000
     30       0.2919      0.00000
     31       0.3910      0.00000
     32       0.4274      0.00000
     33       0.4413      0.00000
     34       0.5262      0.00000
     35       0.5742      0.00000
     36       0.5887      0.00000
     37       0.6954      0.00000
     38       0.7416      0.00000
     39       0.7422      0.00000
     40       0.7740      0.00000
     41       0.7787      0.00000
     42       0.7919      0.00000
     43       0.7961      0.00000
     44       0.8116      0.00000
     45       0.8391      0.00000
     46       0.9040      0.00000
     47       0.9765      0.00000
     48       1.0264      0.00000
     49       1.0483      0.00000
     50       1.1309      0.00000
     51       1.1391      0.00000
     52       1.1472      0.00000
     53       1.1697      0.00000
     54       1.1917      0.00000
     55       1.2497      0.00000
     56       1.3659      0.00000
     57       1.4311      0.00000
     58       1.4973      0.00000
     59       1.5301      0.00000
     60       1.5460      0.00000
     61       1.5852      0.00000
     62       1.6337      0.00000
     63       1.6426      0.00000
     64       1.6862      0.00000


--------------------------------------------------------------------------------------------------------


 soft charge-density along one line, spin component           1
         0         1         2         3         4         5         6         7         8         9
 total charge-density along one line
 
 pseudopotential strength for first ion, spin component:           1
 -6.854  -0.019   0.014  -0.011  -0.000  -2.022   0.013  -0.012
 -0.019  -6.886  -0.009  -0.018   0.011   0.013  -1.999   0.005
  0.014  -0.009  -6.900  -0.015   0.003  -0.012   0.005  -1.989
 -0.011  -0.018  -0.015  -6.894  -0.021   0.007   0.013   0.009
 -0.000   0.011   0.003  -0.021  -6.851   0.000  -0.007  -0.002
 -2.022   0.013  -0.012   0.007   0.000   8.578  -0.008   0.008
  0.013  -1.999   0.005   0.013  -0.007  -0.008   8.564  -0.002
 -0.012   0.005  -1.989   0.009  -0.002   0.008  -0.002   8.557
  0.007   0.013   0.009  -1.994   0.014  -0.004  -0.008  -0.005
  0.000  -0.007  -0.002   0.014  -2.023  -0.000   0.004   0.002
  0.013  -0.001   0.008   0.003   0.001  -0.005   0.003  -0.001
  0.024  -0.002   0.015   0.006   0.002  -0.009   0.006  -0.001
  0.015   0.029  -0.005   0.000  -0.010  -0.007  -0.014   0.002
  0.000   0.012   0.033   0.017   0.000  -0.000  -0.006  -0.016
  0.010   0.000  -0.008   0.029   0.016  -0.005  -0.000   0.003
  0.016   0.031  -0.005   0.000  -0.011  -0.006  -0.011   0.001
  0.000   0.014   0.036   0.020   0.000  -0.001  -0.006  -0.014
  0.010   0.000  -0.008   0.032   0.017  -0.004  -0.001   0.002
 total augmentation occupancy for first ion, spin component:           1
  1.991   0.003   0.003   0.004   0.000  -0.009  -0.001  -0.007  -0.002  -0.000  -0.016  -0.023  -0.032  -0.017  -0.025   0.022
  0.003   1.985  -0.003  -0.007  -0.002  -0.001  -0.001   0.003   0.014   0.001  -0.021   0.013  -0.055  -0.030  -0.003   0.039
  0.003  -0.003   1.990  -0.003  -0.001  -0.007   0.003  -0.001   0.006  -0.000  -0.029  -0.005   0.001  -0.077   0.003  -0.010
  0.004  -0.007  -0.003   1.983   0.001  -0.002   0.014   0.006   0.002   0.003  -0.032   0.009  -0.005  -0.047  -0.062   0.000
  0.000  -0.002  -0.001   0.001   1.989  -0.000   0.001  -0.000   0.003  -0.015  -0.005   0.000   0.019  -0.003  -0.030  -0.014
 -0.009  -0.001  -0.007  -0.002  -0.000   0.008   0.001  -0.003   0.001   0.000   0.079  -0.012  -0.017  -0.002  -0.017   0.002
 -0.001  -0.001   0.003   0.014   0.001   0.001   0.007  -0.001   0.003   0.000  -0.008   0.001  -0.016   0.001  -0.009   0.001
 -0.007   0.003  -0.001   0.006  -0.000  -0.003  -0.001   0.012   0.000  -0.000   0.049  -0.008   0.015  -0.032   0.013  -0.001
 -0.002   0.014   0.006   0.002   0.003   0.001   0.003   0.000   0.008   0.001   0.017  -0.003  -0.008  -0.006  -0.016   0.001
 -0.000   0.001  -0.000   0.003  -0.015   0.000   0.000  -0.000   0.001   0.004   0.006  -0.001   0.001  -0.000  -0.006   0.000
 -0.016  -0.021  -0.029  -0.032  -0.005   0.079  -0.008   0.049   0.017   0.006   1.889  -0.285  -0.114  -0.316  -0.170   0.015
 -0.023   0.013  -0.005   0.009   0.000  -0.012   0.001  -0.008  -0.003  -0.001  -0.285   0.044   0.018   0.050   0.027  -0.002
 -0.032  -0.055   0.001  -0.005   0.019  -0.017  -0.016   0.015  -0.008   0.001  -0.114   0.018   0.103  -0.038   0.077  -0.010
 -0.017  -0.030  -0.077  -0.047  -0.003  -0.002   0.001  -0.032  -0.006  -0.000  -0.316   0.050  -0.038   0.138  -0.023   0.001
 -0.025  -0.003   0.003  -0.062  -0.030  -0.017  -0.009   0.013  -0.016  -0.006  -0.170   0.027   0.077  -0.023   0.104  -0.007
  0.022   0.039  -0.010   0.000  -0.014   0.002   0.001  -0.001   0.001   0.000   0.015  -0.002  -0.010   0.001  -0.007   0.002
  0.001   0.012   0.046   0.019  -0.000   0.001   0.000   0.003   0.001   0.000   0.041  -0.006   0.001  -0.016  -0.000   0.000
  0.016   0.000  -0.014   0.039   0.021   0.002   0.001  -0.001   0.002   0.001   0.022  -0.003  -0.007  -0.000  -0.011   0.001


------------------------ aborting loop because EDIFF is reached ----------------------------------------


    FORLOC:  cpu time      0.0993: real time      0.0994
    FORHF :  cpu time      4.4188: real time      4.4224
    FORNL :  cpu time      0.4931: real time      0.5213
    FORCOR:  cpu time      1.5392: real time      1.5406
    OFIELD:  cpu time      0.0009: real time      0.0009
 -----------------------------------------------------------------------------
|                                                                             |
|           W    W    AA    RRRRR   N    N  II  N    N   GGGG   !!!           |
|           W    W   A  A   R    R  NN   N  II  NN   N  G    G  !!!           |
|           W    W  A    A  R    R  N N  N  II  N N  N  G       !!!           |
|           W WW W  AAAAAA  RRRRR   N  N N  II  N  N N  G  GGG   !            |
|           WW  WW  A    A  R   R   N   NN  II  N   NN  G    G                |
|           W    W  A    A  R    R  N    N  II  N    N   GGGG   !!!           |
|                                                                             |
|     Specifying the vdW parameters                                           |
|     VDW_S8 = 0.928                                                          |
|     VDW_SR = 1.287                                                          |
|     in the INCAR file will overwrite the defaults for pbe0. Please make     |
|     sure that is what you intended.                                         |
|                                                                             |
 -----------------------------------------------------------------------------


 ---------------------------------------------------------------------------------------------

         DFTD3 V3.0 Rev 1        
 IVDW         = 11
 DF pbe0      
 parameters
 VDW_S6       =    1.0000
 VDW_S8       =    0.9280
 VDW_SR       =    1.2870
 rs18     =    1.0000
 alpha6   =   14.0000
 alpha8   =   16.0000
 k1-k3    =   16.0000    1.3333   -4.0000
 VDW_RADIUS   =   50.2022 A
 VDW_CNRADIUS =   21.1671 A
 Edisp (eV)   -0.03278

 E6    (eV) :    -0.0024
 E8    (eV) :    -0.0303
 % E8        : 92.55
    FORVDW:  cpu time      0.0353: real time      0.0361

 VOLUME and BASIS-vectors are now :
 -----------------------------------------------------------------------------
  energy-cutoff  :      520.00
  volume of cell :     8000.00
      direct lattice vectors                 reciprocal lattice vectors
    20.000000000  0.000000000  0.000000000     0.050000000  0.000000000  0.000000000
     0.000000000 20.000000000  0.000000000     0.000000000  0.050000000  0.000000000
     0.000000000  0.000000000 20.000000000     0.000000000  0.000000000  0.050000000

  length of vectors
    20.000000000 20.000000000 20.000000000     0.050000000  0.050000000  0.050000000


 FORCES acting on ions:
    Electron-Ion                     Ewald-Force                    Non-Local-Force
 -----------------------------------------------------------------------------------------------
   -.294E+03 -.196E+03 -.545E+03   0.288E+03 0.192E+03 0.535E+03   0.548E+01 0.367E+01 0.102E+02
   0.294E+03 0.195E+03 0.545E+03   -.289E+03 -.192E+03 -.535E+03   -.550E+01 -.366E+01 -.102E+02
   0.378E+03 0.405E+03 -.349E+03   -.371E+03 -.398E+03 0.343E+03   -.664E+01 -.711E+01 0.614E+01
   -.378E+03 -.404E+03 0.349E+03   0.372E+03 0.397E+03 -.343E+03   0.666E+01 0.709E+01 -.614E+01
 -----------------------------------------------------------------------------------------------
   -.102E-01 0.110E-01 0.182E-02   -.568E-13 -.568E-13 0.114E-12   0.291E-02 -.658E-02 -.613E-02
 
 
 POSITION                                       TOTAL-FORCE (eV/Angst)
 -----------------------------------------------------------------------------------
      0.50908      0.34024      0.94542         0.091352      0.058949      0.166480
     19.48963     19.66109     19.05474        -0.090508     -0.059644     -0.166427
     18.80177     18.71609      1.10740        -0.165635     -0.175293      0.152344
      1.19952      1.28257     18.89244         0.164790      0.175988     -0.152398
 -----------------------------------------------------------------------------------
    total drift:                               -0.000181     -0.000116     -0.000131


--------------------------------------------------------------------------------------------------------



  FREE ENERGIE OF THE ION-ELECTRON SYSTEM (eV)
  ---------------------------------------------------
  free  energy   TOTEN  =        -8.47017557 eV

  energy  without entropy=       -8.47017557  energy(sigma->0) =       -8.47017557
 


--------------------------------------------------------------------------------------------------------


    POTLOK:  cpu time      1.6625: real time      1.6640


--------------------------------------------------------------------------------------------------------


     LOOP+:  cpu time    879.0525: real time    883.3871
    4ORBIT:  cpu time      0.0000: real time      0.0000

 total amount of memory used by VASP MPI-rank0  3551021. kBytes
=======================================================================

   base      :      30000. kBytes
   nonlr-proj:       5763. kBytes
   fftplans  :      28721. kBytes
   grid      :     157056. kBytes
   one-center:         62. kBytes
   HF        :         64. kBytes
   wavefun   :      10350. kBytes
   fock_wrk  :    3319005. kBytes
 
  
  
 General timing and accounting informations for this job:
 ========================================================
  
                  Total CPU time used (sec):      892.708
                            User time (sec):      788.434
                          System time (sec):      104.274
                         Elapsed time (sec):      897.942
  
                   Maximum memory used (kb):     5514796.
                   Average memory used (kb):          N/A
  
                          Minor page faults:      1670128
                          Major page faults:            0
                 Voluntary context switches:         9995
