 **********************************************************************
                          MRCC program system
 **********************************************************************
 
                              Written by
     Mihaly Kallay, Peter R. Nagy, David Mester, Laszlo Gyevi-Nagy,
        Jozsef Csoka, P. Bernat Szabo, Zoltan Rolik, Gyula Samu,
     Jozsef Csontos, Bence Hegely, Adam Ganyecz, Istvan Ladjanszki,
       Lorant Szegedy, Bence Ladoczki, Klara Petrov, Mate Farkas,
                    Pal D. Mezei, and Reka A. Horvath
 
        Department of Physical Chemistry and Materials Science
            Budapest University of Technology and Economics
                  Budapest P.O.Box 91, H-1521 Hungary
 
                              www.mrcc.hu
 
                      Release date: March 18, 2022

 ************************ 2023-01-12 14:08:43 *************************
 Executing minp...

 Reading input from MINP...
 
 Input file:
 
calc=LMP2
scftype=rhf
verbosity=3
mem=220GB
symm=off
unit=angs
scfiguess=small
scfmaxit=1000
scfalg=locfit1


lcorthr=tight
bpedo=0.99999

charge=-40
core=94

basis=special
bse_ACVTZ
bse_ACVTZ
bse_ACVTZ
bse_ACVTZ
aug-cc-pVTZ
bse_CVTZ
bse_CVTZ
bse_CVTZ
bse_CVTZ
bse_CVTZ
aug-cc-pVTZ
aug-cc-pVTZ
aug-cc-pVTZ
aug-cc-pVTZ
aug-cc-pVTZ
aug-cc-pVTZ
aug-cc-pVTZ
aug-cc-pVTZ
bse_CVTZ
bse_CVTZ
bse_CVTZ
bse_CVTZ
aug-cc-pVTZ
aug-cc-pVTZ
aug-cc-pVTZ
aug-cc-pVTZ
bse_CVTZ
bse_CVTZ
bse_CVTZ
bse_CVTZ
bse_CVTZ
bse_CVTZ
bse_CVTZ
bse_CVTZ
bse_CVTZ
bse_CVTZ
bse_CVTZ
bse_CVTZ
aug-cc-pVTZ
aug-cc-pVTZ
aug-cc-pVTZ
aug-cc-pVTZ
aug-cc-pVTZ
aug-cc-pVTZ
aug-cc-pVTZ
aug-cc-pVTZ
aug-cc-pVTZ
aug-cc-pVTZ
aug-cc-pVTZ
aug-cc-pVTZ
bse_CVTZ
bse_CVTZ
bse_CVTZ
bse_CVTZ
bse_CVTZ
aug-cc-pVTZ
aug-cc-pVTZ
aug-cc-pVTZ
aug-cc-pVTZ
aug-cc-pVTZ
aug-cc-pVTZ
aug-cc-pVTZ
aug-cc-pVTZ
aug-cc-pVTZ
aug-cc-pVTZ
aug-cc-pVTZ
aug-cc-pVTZ
bse_CVTZ
bse_CVTZ
bse_CVTZ
bse_CVTZ
bse_CVTZ
bse_CVTZ
bse_CVTZ
bse_CVTZ
aug-cc-pVTZ
aug-cc-pVTZ
aug-cc-pVTZ
aug-cc-pVTZ
aug-cc-pVTZ
aug-cc-pVTZ
aug-cc-pVTZ
bse_CVTZ
bse_CVTZ
bse_CVTZ
aug-cc-pVTZ
aug-cc-pVTZ
aug-cc-pVTZ
aug-cc-pVTZ
aug-cc-pVTZ
aug-cc-pVTZ
aug-cc-pVTZ
aug-cc-pVTZ
aug-cc-pVTZ
aug-cc-pVTZ
aug-cc-pVTZ
aug-cc-pVTZ
aug-cc-pVTZ
nothing
nothing
nothing
nothing
nothing
nothing
nothing
nothing
nothing
nothing
nothing
nothing
nothing
nothing
nothing
nothing
nothing
nothing
nothing
nothing
nothing
nothing
nothing
nothing
nothing
nothing
nothing
nothing
nothing
nothing
nothing
nothing
nothing
nothing
nothing
nothing
nothing
nothing
nothing
nothing
nothing
nothing
nothing
nothing
nothing
nothing
nothing
nothing
nothing
nothing
nothing
nothing
nothing
nothing
nothing
nothing
nothing
nothing
nothing
nothing

basis_sm=special
def2-SVP
def2-SVP
def2-SVP
def2-SVP
def2-SVP
def2-SVP
def2-SVP
def2-SVP
def2-SVP
def2-SVP
def2-SVP
def2-SVP
def2-SVP
def2-SVP
def2-SVP
def2-SVP
def2-SVP
def2-SVP
def2-SVP
def2-SVP
def2-SVP
def2-SVP
def2-SVP
def2-SVP
def2-SVP
def2-SVP
def2-SVP
def2-SVP
def2-SVP
def2-SVP
def2-SVP
def2-SVP
def2-SVP
def2-SVP
def2-SVP
def2-SVP
def2-SVP
def2-SVP
def2-SVP
def2-SVP
def2-SVP
def2-SVP
def2-SVP
def2-SVP
def2-SVP
def2-SVP
def2-SVP
def2-SVP
def2-SVP
def2-SVP
def2-SVP
def2-SVP
def2-SVP
def2-SVP
def2-SVP
def2-SVP
def2-SVP
def2-SVP
def2-SVP
def2-SVP
def2-SVP
def2-SVP
def2-SVP
def2-SVP
def2-SVP
def2-SVP
def2-SVP
def2-SVP
def2-SVP
def2-SVP
def2-SVP
def2-SVP
def2-SVP
def2-SVP
def2-SVP
def2-SVP
def2-SVP
def2-SVP
def2-SVP
def2-SVP
def2-SVP
def2-SVP
def2-SVP
def2-SVP
def2-SVP
def2-SVP
def2-SVP
def2-SVP
def2-SVP
def2-SVP
def2-SVP
def2-SVP
def2-SVP
def2-SVP
def2-SVP
def2-SVP
def2-SVP
def2-SVP
nothing
nothing
nothing
nothing
nothing
nothing
nothing
nothing
nothing
nothing
nothing
nothing
nothing
nothing
nothing
nothing
nothing
nothing
nothing
nothing
nothing
nothing
nothing
nothing
nothing
nothing
nothing
nothing
nothing
nothing
nothing
nothing
nothing
nothing
nothing
nothing
nothing
nothing
nothing
nothing
nothing
nothing
nothing
nothing
nothing
nothing
nothing
nothing
nothing
nothing
nothing
nothing
nothing
nothing
nothing
nothing
nothing
nothing
nothing
nothing

dfbasis_scf=special
def2-QZVPP-RI-JK
def2-QZVPP-RI-JK
def2-QZVPP-RI-JK
def2-QZVPP-RI-JK
def2-QZVPP-RI-JK
def2-QZVPP-RI-JK
def2-QZVPP-RI-JK
def2-QZVPP-RI-JK
def2-QZVPP-RI-JK
def2-QZVPP-RI-JK
def2-QZVPP-RI-JK
def2-QZVPP-RI-JK
def2-QZVPP-RI-JK
def2-QZVPP-RI-JK
def2-QZVPP-RI-JK
def2-QZVPP-RI-JK
def2-QZVPP-RI-JK
def2-QZVPP-RI-JK
def2-QZVPP-RI-JK
def2-QZVPP-RI-JK
def2-QZVPP-RI-JK
def2-QZVPP-RI-JK
def2-QZVPP-RI-JK
def2-QZVPP-RI-JK
def2-QZVPP-RI-JK
def2-QZVPP-RI-JK
def2-QZVPP-RI-JK
def2-QZVPP-RI-JK
def2-QZVPP-RI-JK
def2-QZVPP-RI-JK
def2-QZVPP-RI-JK
def2-QZVPP-RI-JK
def2-QZVPP-RI-JK
def2-QZVPP-RI-JK
def2-QZVPP-RI-JK
def2-QZVPP-RI-JK
def2-QZVPP-RI-JK
def2-QZVPP-RI-JK
def2-QZVPP-RI-JK
def2-QZVPP-RI-JK
def2-QZVPP-RI-JK
def2-QZVPP-RI-JK
def2-QZVPP-RI-JK
def2-QZVPP-RI-JK
def2-QZVPP-RI-JK
def2-QZVPP-RI-JK
def2-QZVPP-RI-JK
def2-QZVPP-RI-JK
def2-QZVPP-RI-JK
def2-QZVPP-RI-JK
def2-QZVPP-RI-JK
def2-QZVPP-RI-JK
def2-QZVPP-RI-JK
def2-QZVPP-RI-JK
def2-QZVPP-RI-JK
def2-QZVPP-RI-JK
def2-QZVPP-RI-JK
def2-QZVPP-RI-JK
def2-QZVPP-RI-JK
def2-QZVPP-RI-JK
def2-QZVPP-RI-JK
def2-QZVPP-RI-JK
def2-QZVPP-RI-JK
def2-QZVPP-RI-JK
def2-QZVPP-RI-JK
def2-QZVPP-RI-JK
def2-QZVPP-RI-JK
def2-QZVPP-RI-JK
def2-QZVPP-RI-JK
def2-QZVPP-RI-JK
def2-QZVPP-RI-JK
def2-QZVPP-RI-JK
def2-QZVPP-RI-JK
def2-QZVPP-RI-JK
def2-QZVPP-RI-JK
def2-QZVPP-RI-JK
def2-QZVPP-RI-JK
def2-QZVPP-RI-JK
def2-QZVPP-RI-JK
def2-QZVPP-RI-JK
def2-QZVPP-RI-JK
def2-QZVPP-RI-JK
def2-QZVPP-RI-JK
def2-QZVPP-RI-JK
def2-QZVPP-RI-JK
def2-QZVPP-RI-JK
def2-QZVPP-RI-JK
def2-QZVPP-RI-JK
def2-QZVPP-RI-JK
def2-QZVPP-RI-JK
def2-QZVPP-RI-JK
def2-QZVPP-RI-JK
def2-QZVPP-RI-JK
def2-QZVPP-RI-JK
def2-QZVPP-RI-JK
def2-QZVPP-RI-JK
def2-QZVPP-RI-JK
def2-QZVPP-RI-JK
nothing
nothing
nothing
nothing
nothing
nothing
nothing
nothing
nothing
nothing
nothing
nothing
nothing
nothing
nothing
nothing
nothing
nothing
nothing
nothing
nothing
nothing
nothing
nothing
nothing
nothing
nothing
nothing
nothing
nothing
nothing
nothing
nothing
nothing
nothing
nothing
nothing
nothing
nothing
nothing
nothing
nothing
nothing
nothing
nothing
nothing
nothing
nothing
nothing
nothing
nothing
nothing
nothing
nothing
nothing
nothing
nothing
nothing
nothing
nothing

dfbasis_cor=special
bse_ACVTZ_autoaux
bse_ACVTZ_autoaux
bse_ACVTZ_autoaux
bse_ACVTZ_autoaux
aug-cc-pVTZ-RI
bse_CVTZ_mp2fit
bse_CVTZ_mp2fit
bse_CVTZ_mp2fit
bse_CVTZ_mp2fit
bse_CVTZ_mp2fit
aug-cc-pVTZ-RI
aug-cc-pVTZ-RI
aug-cc-pVTZ-RI
aug-cc-pVTZ-RI
aug-cc-pVTZ-RI
aug-cc-pVTZ-RI
aug-cc-pVTZ-RI
aug-cc-pVTZ-RI
bse_CVTZ_mp2fit
bse_CVTZ_mp2fit
bse_CVTZ_mp2fit
bse_CVTZ_mp2fit
aug-cc-pVTZ-RI
aug-cc-pVTZ-RI
aug-cc-pVTZ-RI
aug-cc-pVTZ-RI
bse_CVTZ_mp2fit
bse_CVTZ_mp2fit
bse_CVTZ_mp2fit
bse_CVTZ_mp2fit
bse_CVTZ_mp2fit
bse_CVTZ_mp2fit
bse_CVTZ_mp2fit
bse_CVTZ_mp2fit
bse_CVTZ_mp2fit
bse_CVTZ_mp2fit
bse_CVTZ_mp2fit
bse_CVTZ_mp2fit
aug-cc-pVTZ-RI
aug-cc-pVTZ-RI
aug-cc-pVTZ-RI
aug-cc-pVTZ-RI
aug-cc-pVTZ-RI
aug-cc-pVTZ-RI
aug-cc-pVTZ-RI
aug-cc-pVTZ-RI
aug-cc-pVTZ-RI
aug-cc-pVTZ-RI
aug-cc-pVTZ-RI
aug-cc-pVTZ-RI
bse_CVTZ_mp2fit
bse_CVTZ_mp2fit
bse_CVTZ_mp2fit
bse_CVTZ_mp2fit
bse_CVTZ_mp2fit
aug-cc-pVTZ-RI
aug-cc-pVTZ-RI
aug-cc-pVTZ-RI
aug-cc-pVTZ-RI
aug-cc-pVTZ-RI
aug-cc-pVTZ-RI
aug-cc-pVTZ-RI
aug-cc-pVTZ-RI
aug-cc-pVTZ-RI
aug-cc-pVTZ-RI
aug-cc-pVTZ-RI
aug-cc-pVTZ-RI
bse_CVTZ_mp2fit
bse_CVTZ_mp2fit
bse_CVTZ_mp2fit
bse_CVTZ_mp2fit
bse_CVTZ_mp2fit
bse_CVTZ_mp2fit
bse_CVTZ_mp2fit
bse_CVTZ_mp2fit
aug-cc-pVTZ-RI
aug-cc-pVTZ-RI
aug-cc-pVTZ-RI
aug-cc-pVTZ-RI
aug-cc-pVTZ-RI
aug-cc-pVTZ-RI
aug-cc-pVTZ-RI
bse_CVTZ_mp2fit
bse_CVTZ_mp2fit
bse_CVTZ_mp2fit
aug-cc-pVTZ-RI
aug-cc-pVTZ-RI
aug-cc-pVTZ-RI
aug-cc-pVTZ-RI
aug-cc-pVTZ-RI
aug-cc-pVTZ-RI
aug-cc-pVTZ-RI
aug-cc-pVTZ-RI
aug-cc-pVTZ-RI
aug-cc-pVTZ-RI
aug-cc-pVTZ-RI
aug-cc-pVTZ-RI
aug-cc-pVTZ-RI
nothing
nothing
nothing
nothing
nothing
nothing
nothing
nothing
nothing
nothing
nothing
nothing
nothing
nothing
nothing
nothing
nothing
nothing
nothing
nothing
nothing
nothing
nothing
nothing
nothing
nothing
nothing
nothing
nothing
nothing
nothing
nothing
nothing
nothing
nothing
nothing
nothing
nothing
nothing
nothing
nothing
nothing
nothing
nothing
nothing
nothing
nothing
nothing
nothing
nothing
nothing
nothing
nothing
nothing
nothing
nothing
nothing
nothing
nothing
nothing

ecp=special
MCDHF-ECP-10
MCDHF-ECP-10
MCDHF-ECP-10
MCDHF-ECP-10
none
none
none
none
none
none
none
none
none
none
none
none
none
none
none
none
none
none
none
none
none
none
none
none
none
none
none
none
none
none
none
none
none
none
none
none
none
none
none
none
none
none
none
none
none
none
none
none
none
none
none
none
none
none
none
none
none
none
none
none
none
none
none
none
none
none
none
none
none
none
none
none
none
none
none
none
none
none
none
none
none
none
none
none
none
none
none
none
none
none
none
none
none
none
ECP-12
ECP-12
ECP-12
ECP-12
ECP-12
ECP-12
ECP-12
ECP-12
ECP-12
ECP-12
ECP-12
ECP-12
ECP-12
ECP-12
ECP-12
ECP-12
ECP-12
ECP-12
ECP-12
ECP-12
ECP-12
ECP-12
ECP-12
ECP-12
ECP-12
ECP-12
ECP-12
ECP-12
ECP-12
ECP-12
ECP-12
ECP-12
ECP-12
ECP-12
ECP-12
ECP-12
ECP-12
ECP-12
ECP-12
ECP-12
ECP-12
ECP-12
ECP-12
ECP-12
ECP-12
ECP-12
ECP-12
ECP-12
ECP-12
ECP-12
ECP-12
ECP-12
ECP-12
ECP-12
ECP-12
ECP-12
ECP-12
ECP-12
ECP-12
ECP-12

unit=angs
geom=xyz
158
Cu4 Mg37 O57 ECP60
Cu   -2.14920314121    2.15021012456    2.10441259865
Cu   -3.79194564748    3.79291995180    2.13728892109
Cu    1.67902473209   -1.67805042778    2.13728892109
Cu    0.03631490486   -0.03531792151    2.10441259865
O     0.00000000000    0.00000000000    0.00000000000
Mg   -2.11388582115    0.00000000000    0.00000000000
Mg    0.00000000000    2.11388582115    0.00000000000
Mg    2.11388582115    0.00000000000    0.00000000000
Mg    0.00000000000   -2.11388582115    0.00000000000
Mg    0.00000000000    0.00000000000   -2.11388582115
O    -2.11388582115    2.11388582115    0.00000000000
O     2.11388582115    2.11388582115    0.00000000000
O     2.11388582115   -2.11388582115    0.00000000000
O    -2.11388582115   -2.11388582115    0.00000000000
O    -2.11388582115    0.00000000000   -2.11388582115
O     0.00000000000    2.11388582115   -2.11388582115
O     2.11388582115    0.00000000000   -2.11388582115
O     0.00000000000   -2.11388582115   -2.11388582115
Mg   -2.11388582115    2.11388582115   -2.11388582115
Mg    2.11388582115    2.11388582115   -2.11388582115
Mg    2.11388582115   -2.11388582115   -2.11388582115
Mg   -2.11388582115   -2.11388582115   -2.11388582115
O    -4.22777164231    0.00000000000    0.00000000000
O     0.00000000000    4.22777164231    0.00000000000
O     4.22777164231    0.00000000000    0.00000000000
O     0.00000000000   -4.22777164231    0.00000000000
Mg   -4.22777164231    2.11388582115    0.00000000000
Mg   -2.11388582115    4.22777164231    0.00000000000
Mg    2.11388582115    4.22777164231    0.00000000000
Mg    4.22777164231    2.11388582115    0.00000000000
Mg    4.22777164231   -2.11388582115    0.00000000000
Mg    2.11388582115   -4.22777164231    0.00000000000
Mg   -2.11388582115   -4.22777164231    0.00000000000
Mg   -4.22777164231   -2.11388582115    0.00000000000
Mg   -4.22777164231    0.00000000000   -2.11388582115
Mg    0.00000000000    4.22777164231   -2.11388582115
Mg    4.22777164231    0.00000000000   -2.11388582115
Mg    0.00000000000   -4.22777164231   -2.11388582115
O    -4.22777164231    2.11388582115   -2.11388582115
O    -2.11388582115    4.22777164231   -2.11388582115
O     2.11388582115    4.22777164231   -2.11388582115
O     4.22777164231    2.11388582115   -2.11388582115
O     4.22777164231   -2.11388582115   -2.11388582115
O     2.11388582115   -4.22777164231   -2.11388582115
O    -2.11388582115   -4.22777164231   -2.11388582115
O    -4.22777164231   -2.11388582115   -2.11388582115
O    -4.22777164231    4.22777164231    0.00000000000
O     4.22777164231    4.22777164231    0.00000000000
O     4.22777164231   -4.22777164231    0.00000000000
O    -4.22777164231   -4.22777164231    0.00000000000
Mg   -6.34165746346    0.00000000000    0.00000000000
Mg    0.00000000000    6.34165746346    0.00000000000
Mg    0.00000000000   -6.34165746346    0.00000000000
Mg   -4.22777164231    4.22777164231   -2.11388582115
Mg   -4.22777164231   -4.22777164231   -2.11388582115
O    -6.34165746346    2.11388582115    0.00000000000
O    -2.11388582115    6.34165746346    0.00000000000
O     2.11388582115    6.34165746346    0.00000000000
O     6.34165746346    2.11388582115    0.00000000000
O     6.34165746346   -2.11388582115    0.00000000000
O     2.11388582115   -6.34165746346    0.00000000000
O    -2.11388582115   -6.34165746346    0.00000000000
O    -6.34165746346   -2.11388582115    0.00000000000
O    -6.34165746346    0.00000000000   -2.11388582115
O     0.00000000000    6.34165746346   -2.11388582115
O     6.34165746346    0.00000000000   -2.11388582115
O     0.00000000000   -6.34165746346   -2.11388582115
Mg   -6.34165746346    2.11388582115   -2.11388582115
Mg   -2.11388582115    6.34165746346   -2.11388582115
Mg   -2.11388582115   -6.34165746346   -2.11388582115
Mg   -6.34165746346   -2.11388582115   -2.11388582115
Mg   -6.34165746346    4.22777164231    0.00000000000
Mg   -4.22777164231    6.34165746346    0.00000000000
Mg   -4.22777164231   -6.34165746346    0.00000000000
Mg   -6.34165746346   -4.22777164231    0.00000000000
O    -6.34165746346    4.22777164231   -2.11388582115
O    -4.22777164231    6.34165746346   -2.11388582115
O    -4.22777164231   -6.34165746346   -2.11388582115
O    -6.34165746346   -4.22777164231   -2.11388582115
O    -8.45554328461    0.00000000000    0.00000000000
O     0.00000000000    8.45554328461    0.00000000000
O     0.00000000000   -8.45554328461    0.00000000000
Mg   -8.45554328461    2.11388582115    0.00000000000
Mg   -8.45554328461   -2.11388582115    0.00000000000
Mg   -8.45554328461    0.00000000000   -2.11388582115
O    -6.34165746346    6.34165746346    0.00000000000
O    -6.34165746346   -6.34165746346    0.00000000000
O    -8.45554328461    2.11388582115   -2.11388582115
O    -2.11388582115    8.45554328461   -2.11388582115
O    -2.11388582115   -8.45554328461   -2.11388582115
O    -8.45554328461   -2.11388582115   -2.11388582115
O    -8.45554328461    4.22777164231    0.00000000000
O    -4.22777164231    8.45554328461    0.00000000000
O    -4.22777164231   -8.45554328461    0.00000000000
O    -8.45554328461   -4.22777164231    0.00000000000
O   -10.56942910577    2.11388582115    0.00000000000
O   -10.56942910577   -2.11388582115    0.00000000000
O   -10.56942910577    0.00000000000   -2.11388582115
Mg    6.34165746346    0.00000000000    0.00000000000
Mg    4.22777164231    4.22777164231   -2.11388582115
Mg    4.22777164231   -4.22777164231   -2.11388582115
Mg    2.11388582115    6.34165746346   -2.11388582115
Mg    6.34165746346    2.11388582115   -2.11388582115
Mg    6.34165746346   -2.11388582115   -2.11388582115
Mg    2.11388582115   -6.34165746346   -2.11388582115
Mg    4.22777164231    6.34165746346    0.00000000000
Mg    6.34165746346    4.22777164231    0.00000000000
Mg    6.34165746346   -4.22777164231    0.00000000000
Mg    4.22777164231   -6.34165746346    0.00000000000
Mg   -2.11388582115    8.45554328461    0.00000000000
Mg    2.11388582115    8.45554328461    0.00000000000
Mg    8.45554328461    2.11388582115    0.00000000000
Mg    8.45554328461   -2.11388582115    0.00000000000
Mg    2.11388582115   -8.45554328461    0.00000000000
Mg   -2.11388582115   -8.45554328461    0.00000000000
Mg    0.00000000000    8.45554328461   -2.11388582115
Mg    8.45554328461    0.00000000000   -2.11388582115
Mg    0.00000000000   -8.45554328461   -2.11388582115
Mg   -6.34165746346    6.34165746346   -2.11388582115
Mg    6.34165746346    6.34165746346   -2.11388582115
Mg    6.34165746346   -6.34165746346   -2.11388582115
Mg   -6.34165746346   -6.34165746346   -2.11388582115
Mg   -8.45554328461    4.22777164231   -2.11388582115
Mg   -4.22777164231    8.45554328461   -2.11388582115
Mg    4.22777164231    8.45554328461   -2.11388582115
Mg    8.45554328461    4.22777164231   -2.11388582115
Mg    8.45554328461   -4.22777164231   -2.11388582115
Mg    4.22777164231   -8.45554328461   -2.11388582115
Mg   -4.22777164231   -8.45554328461   -2.11388582115
Mg   -8.45554328461   -4.22777164231   -2.11388582115
Mg  -10.56942910577    0.00000000000    0.00000000000
Mg   -8.45554328461    6.34165746346    0.00000000000
Mg   -6.34165746346    8.45554328461    0.00000000000
Mg    0.00000000000   10.56942910577    0.00000000000
Mg    0.00000000000  -10.56942910577    0.00000000000
Mg   -6.34165746346   -8.45554328461    0.00000000000
Mg   -8.45554328461   -6.34165746346    0.00000000000
Mg  -10.56942910577    2.11388582115   -2.11388582115
Mg   -2.11388582115   10.56942910577   -2.11388582115
Mg    2.11388582115   10.56942910577   -2.11388582115
Mg    2.11388582115  -10.56942910577   -2.11388582115
Mg   -2.11388582115  -10.56942910577   -2.11388582115
Mg  -10.56942910577   -2.11388582115   -2.11388582115
Mg  -10.56942910577    4.22777164231    0.00000000000
Mg   -4.22777164231   10.56942910577    0.00000000000
Mg   -4.22777164231  -10.56942910577    0.00000000000
Mg  -10.56942910577   -4.22777164231    0.00000000000
Mg   -8.45554328461    8.45554328461   -2.11388582115
Mg   -8.45554328461   -8.45554328461   -2.11388582115
Mg  -10.56942910577    6.34165746346   -2.11388582115
Mg   -6.34165746346   10.56942910577   -2.11388582115
Mg   -6.34165746346  -10.56942910577   -2.11388582115
Mg  -10.56942910577   -6.34165746346   -2.11388582115
Mg  -12.68331492692    2.11388582115    0.00000000000
Mg  -12.68331492692   -2.11388582115    0.00000000000
Mg  -12.68331492692    0.00000000000   -2.11388582115
Mg  -12.68331492692    4.22777164231   -2.11388582115
Mg  -12.68331492692   -4.22777164231   -2.11388582115


ghost=serialno


qmmm=Amber
pointcharges
8955
      6.34165746346    0.00000000000    0.00000000000    2.00000000000
      4.22777164231    4.22777164231   -2.11388582115    2.00000000000
      4.22777164231   -4.22777164231   -2.11388582115    2.00000000000
      2.11388582115    6.34165746346   -2.11388582115    2.00000000000
      6.34165746346    2.11388582115   -2.11388582115    2.00000000000
      6.34165746346   -2.11388582115   -2.11388582115    2.00000000000
      2.11388582115   -6.34165746346   -2.11388582115    2.00000000000
      4.22777164231    6.34165746346    0.00000000000    2.00000000000
      6.34165746346    4.22777164231    0.00000000000    2.00000000000
      6.34165746346   -4.22777164231    0.00000000000    2.00000000000
      4.22777164231   -6.34165746346    0.00000000000    2.00000000000
      4.22777164231    6.34165746346   -2.11388582115   -2.00000000000
      6.34165746346    4.22777164231   -2.11388582115   -2.00000000000
      6.34165746346   -4.22777164231   -2.11388582115   -2.00000000000
      4.22777164231   -6.34165746346   -2.11388582115   -2.00000000000
      8.45554328461    0.00000000000    0.00000000000   -2.00000000000
     -2.11388582115    8.45554328461    0.00000000000    2.00000000000
      2.11388582115    8.45554328461    0.00000000000    2.00000000000
      8.45554328461    2.11388582115    0.00000000000    2.00000000000
      8.45554328461   -2.11388582115    0.00000000000    2.00000000000
      2.11388582115   -8.45554328461    0.00000000000    2.00000000000
     -2.11388582115   -8.45554328461    0.00000000000    2.00000000000
      0.00000000000    8.45554328461   -2.11388582115    2.00000000000
      8.45554328461    0.00000000000   -2.11388582115    2.00000000000
      0.00000000000   -8.45554328461   -2.11388582115    2.00000000000
      6.34165746346    6.34165746346    0.00000000000   -2.00000000000
      6.34165746346   -6.34165746346    0.00000000000   -2.00000000000
      2.11388582115    8.45554328461   -2.11388582115   -2.00000000000
      8.45554328461    2.11388582115   -2.11388582115   -2.00000000000
      8.45554328461   -2.11388582115   -2.11388582115   -2.00000000000
      2.11388582115   -8.45554328461   -2.11388582115   -2.00000000000
     -6.34165746346    6.34165746346   -2.11388582115    2.00000000000
      6.34165746346    6.34165746346   -2.11388582115    2.00000000000
      6.34165746346   -6.34165746346   -2.11388582115    2.00000000000
     -6.34165746346   -6.34165746346   -2.11388582115    2.00000000000
      4.22777164231    8.45554328461    0.00000000000   -2.00000000000
      8.45554328461    4.22777164231    0.00000000000   -2.00000000000
      8.45554328461   -4.22777164231    0.00000000000   -2.00000000000
      4.22777164231   -8.45554328461    0.00000000000   -2.00000000000
     -8.45554328461    4.22777164231   -2.11388582115    2.00000000000
     -4.22777164231    8.45554328461   -2.11388582115    2.00000000000
      4.22777164231    8.45554328461   -2.11388582115    2.00000000000
      8.45554328461    4.22777164231   -2.11388582115    2.00000000000
      8.45554328461   -4.22777164231   -2.11388582115    2.00000000000
      4.22777164231   -8.45554328461   -2.11388582115    2.00000000000
     -4.22777164231   -8.45554328461   -2.11388582115    2.00000000000
     -8.45554328461   -4.22777164231   -2.11388582115    2.00000000000
    -10.56942910577    0.00000000000    0.00000000000    2.00000000000
     -8.45554328461    6.34165746346    0.00000000000    2.00000000000
     -6.34165746346    8.45554328461    0.00000000000    2.00000000000
      0.00000000000   10.56942910577    0.00000000000    2.00000000000
      0.00000000000  -10.56942910577    0.00000000000    2.00000000000
     -6.34165746346   -8.45554328461    0.00000000000    2.00000000000
     -8.45554328461   -6.34165746346    0.00000000000    2.00000000000
     -2.11388582115   10.56942910577    0.00000000000   -2.00000000000
      2.11388582115   10.56942910577    0.00000000000   -2.00000000000
      2.11388582115  -10.56942910577    0.00000000000   -2.00000000000
     -2.11388582115  -10.56942910577    0.00000000000   -2.00000000000
     -8.45554328461    6.34165746346   -2.11388582115   -2.00000000000
     -6.34165746346    8.45554328461   -2.11388582115   -2.00000000000
      0.00000000000   10.56942910577   -2.11388582115   -2.00000000000
      0.00000000000  -10.56942910577   -2.11388582115   -2.00000000000
     -6.34165746346   -8.45554328461   -2.11388582115   -2.00000000000
     -8.45554328461   -6.34165746346   -2.11388582115   -2.00000000000
    -10.56942910577    2.11388582115   -2.11388582115    2.00000000000
     -2.11388582115   10.56942910577   -2.11388582115    2.00000000000
      2.11388582115   10.56942910577   -2.11388582115    2.00000000000
      2.11388582115  -10.56942910577   -2.11388582115    2.00000000000
     -2.11388582115  -10.56942910577   -2.11388582115    2.00000000000
    -10.56942910577   -2.11388582115   -2.11388582115    2.00000000000
    -10.56942910577    4.22777164231    0.00000000000    2.00000000000
     -4.22777164231   10.56942910577    0.00000000000    2.00000000000
     -4.22777164231  -10.56942910577    0.00000000000    2.00000000000
    -10.56942910577   -4.22777164231    0.00000000000    2.00000000000
    -10.56942910577    4.22777164231   -2.11388582115   -2.00000000000
     -4.22777164231   10.56942910577   -2.11388582115   -2.00000000000
     -4.22777164231  -10.56942910577   -2.11388582115   -2.00000000000
    -10.56942910577   -4.22777164231   -2.11388582115   -2.00000000000
     -8.45554328461    8.45554328461    0.00000000000   -2.00000000000
     -8.45554328461   -8.45554328461    0.00000000000   -2.00000000000
     -8.45554328461    8.45554328461   -2.11388582115    2.00000000000
     -8.45554328461   -8.45554328461   -2.11388582115    2.00000000000
    -10.56942910577    6.34165746346    0.00000000000   -2.00000000000
     -6.34165746346   10.56942910577    0.00000000000   -2.00000000000
     -6.34165746346  -10.56942910577    0.00000000000   -2.00000000000
    -10.56942910577   -6.34165746346    0.00000000000   -2.00000000000
    -10.56942910577    6.34165746346   -2.11388582115    2.00000000000
     -6.34165746346   10.56942910577   -2.11388582115    2.00000000000
     -6.34165746346  -10.56942910577   -2.11388582115    2.00000000000
    -10.56942910577   -6.34165746346   -2.11388582115    2.00000000000
    -12.68331492692    0.00000000000    0.00000000000   -2.00000000000
    -12.68331492692    2.11388582115    0.00000000000    2.00000000000
    -12.68331492692   -2.11388582115    0.00000000000    2.00000000000
    -12.68331492692    0.00000000000   -2.11388582115    2.00000000000
    -12.68331492692    2.11388582115   -2.11388582115   -2.00000000000
    -12.68331492692   -2.11388582115   -2.11388582115   -2.00000000000
    -12.68331492692    4.22777164231    0.00000000000   -2.00000000000
    -12.68331492692   -4.22777164231    0.00000000000   -2.00000000000
    -12.68331492692    4.22777164231   -2.11388582115    2.00000000000
    -12.68331492692   -4.22777164231   -2.11388582115    2.00000000000
      6.34165746346    8.45554328461    0.00000000000    2.00000000000
      8.45554328461    6.34165746346    0.00000000000    2.00000000000
     10.56942910577    0.00000000000    0.00000000000    2.00000000000
      8.45554328461   -6.34165746346    0.00000000000    2.00000000000
      6.34165746346   -8.45554328461    0.00000000000    2.00000000000
     10.56942910577    2.11388582115    0.00000000000   -2.00000000000
     10.56942910577   -2.11388582115    0.00000000000   -2.00000000000
      6.34165746346    8.45554328461   -2.11388582115   -2.00000000000
      8.45554328461    6.34165746346   -2.11388582115   -2.00000000000
     10.56942910577    0.00000000000   -2.11388582115   -2.00000000000
      8.45554328461   -6.34165746346   -2.11388582115   -2.00000000000
      6.34165746346   -8.45554328461   -2.11388582115   -2.00000000000
     10.56942910577    2.11388582115   -2.11388582115    2.00000000000
     10.56942910577   -2.11388582115   -2.11388582115    2.00000000000
      4.22777164231   10.56942910577    0.00000000000    2.00000000000
     10.56942910577    4.22777164231    0.00000000000    2.00000000000
     10.56942910577   -4.22777164231    0.00000000000    2.00000000000
      4.22777164231  -10.56942910577    0.00000000000    2.00000000000
      4.22777164231   10.56942910577   -2.11388582115   -2.00000000000
     10.56942910577    4.22777164231   -2.11388582115   -2.00000000000
     10.56942910577   -4.22777164231   -2.11388582115   -2.00000000000
      4.22777164231  -10.56942910577   -2.11388582115   -2.00000000000
      8.45554328461    8.45554328461    0.00000000000   -2.00000000000
      8.45554328461   -8.45554328461    0.00000000000   -2.00000000000
      8.45554328461    8.45554328461   -2.11388582115    2.00000000000
      8.45554328461   -8.45554328461   -2.11388582115    2.00000000000
      6.34165746346   10.56942910577    0.00000000000   -2.00000000000
     10.56942910577    6.34165746346    0.00000000000   -2.00000000000
     10.56942910577   -6.34165746346    0.00000000000   -2.00000000000
      6.34165746346  -10.56942910577    0.00000000000   -2.00000000000
      6.34165746346   10.56942910577   -2.11388582115    2.00000000000
     10.56942910577    6.34165746346   -2.11388582115    2.00000000000
     10.56942910577   -6.34165746346   -2.11388582115    2.00000000000
      6.34165746346  -10.56942910577   -2.11388582115    2.00000000000
      0.00000000000   12.68331492692    0.00000000000   -2.00000000000
     12.68331492692    0.00000000000    0.00000000000   -2.00000000000
      0.00000000000  -12.68331492692    0.00000000000   -2.00000000000
     -2.11388582115   12.68331492692    0.00000000000    2.00000000000
      2.11388582115   12.68331492692    0.00000000000    2.00000000000
     12.68331492692    2.11388582115    0.00000000000    2.00000000000
     12.68331492692   -2.11388582115    0.00000000000    2.00000000000
      2.11388582115  -12.68331492692    0.00000000000    2.00000000000
     -2.11388582115  -12.68331492692    0.00000000000    2.00000000000
      0.00000000000   12.68331492692   -2.11388582115    2.00000000000
     12.68331492692    0.00000000000   -2.11388582115    2.00000000000
      0.00000000000  -12.68331492692   -2.11388582115    2.00000000000
     -2.11388582115   12.68331492692   -2.11388582115   -2.00000000000
      2.11388582115   12.68331492692   -2.11388582115   -2.00000000000
     12.68331492692    2.11388582115   -2.11388582115   -2.00000000000
     12.68331492692   -2.11388582115   -2.11388582115   -2.00000000000
      2.11388582115  -12.68331492692   -2.11388582115   -2.00000000000
     -2.11388582115  -12.68331492692   -2.11388582115   -2.00000000000
     -4.22777164231   12.68331492692    0.00000000000   -2.00000000000
      4.22777164231   12.68331492692    0.00000000000   -2.00000000000
     12.68331492692    4.22777164231    0.00000000000   -2.00000000000
     12.68331492692   -4.22777164231    0.00000000000   -2.00000000000
      4.22777164231  -12.68331492692    0.00000000000   -2.00000000000
     -4.22777164231  -12.68331492692    0.00000000000   -2.00000000000
    -10.56942910577    8.45554328461    0.00000000000    2.00000000000
     -8.45554328461   10.56942910577    0.00000000000    2.00000000000
      8.45554328461   10.56942910577    0.00000000000    2.00000000000
     10.56942910577    8.45554328461    0.00000000000    2.00000000000
     10.56942910577   -8.45554328461    0.00000000000    2.00000000000
      8.45554328461  -10.56942910577    0.00000000000    2.00000000000
     -8.45554328461  -10.56942910577    0.00000000000    2.00000000000
    -10.56942910577   -8.45554328461    0.00000000000    2.00000000000
     -4.22777164231   12.68331492692   -2.11388582115    2.00000000000
      4.22777164231   12.68331492692   -2.11388582115    2.00000000000
     12.68331492692    4.22777164231   -2.11388582115    2.00000000000
     12.68331492692   -4.22777164231   -2.11388582115    2.00000000000
      4.22777164231  -12.68331492692   -2.11388582115    2.00000000000
     -4.22777164231  -12.68331492692   -2.11388582115    2.00000000000
    -10.56942910577    8.45554328461   -2.11388582115   -2.00000000000
     -8.45554328461   10.56942910577   -2.11388582115   -2.00000000000
      8.45554328461   10.56942910577   -2.11388582115   -2.00000000000
     10.56942910577    8.45554328461   -2.11388582115   -2.00000000000
     10.56942910577   -8.45554328461   -2.11388582115   -2.00000000000
      8.45554328461  -10.56942910577   -2.11388582115   -2.00000000000
     -8.45554328461  -10.56942910577   -2.11388582115   -2.00000000000
    -10.56942910577   -8.45554328461   -2.11388582115   -2.00000000000
    -12.68331492692    6.34165746346    0.00000000000    2.00000000000
     -6.34165746346   12.68331492692    0.00000000000    2.00000000000
      6.34165746346   12.68331492692    0.00000000000    2.00000000000
     12.68331492692    6.34165746346    0.00000000000    2.00000000000
     12.68331492692   -6.34165746346    0.00000000000    2.00000000000
      6.34165746346  -12.68331492692    0.00000000000    2.00000000000
     -6.34165746346  -12.68331492692    0.00000000000    2.00000000000
    -12.68331492692   -6.34165746346    0.00000000000    2.00000000000
    -12.68331492692    6.34165746346   -2.11388582115   -2.00000000000
     -6.34165746346   12.68331492692   -2.11388582115   -2.00000000000
      6.34165746346   12.68331492692   -2.11388582115   -2.00000000000
     12.68331492692    6.34165746346   -2.11388582115   -2.00000000000
     12.68331492692   -6.34165746346   -2.11388582115   -2.00000000000
      6.34165746346  -12.68331492692   -2.11388582115   -2.00000000000
     -6.34165746346  -12.68331492692   -2.11388582115   -2.00000000000
    -12.68331492692   -6.34165746346   -2.11388582115   -2.00000000000
    -14.79720074808    0.00000000000    0.00000000000    2.00000000000
      0.00000000000   14.79720074808    0.00000000000    2.00000000000
     14.79720074808    0.00000000000    0.00000000000    2.00000000000
      0.00000000000  -14.79720074808    0.00000000000    2.00000000000
    -14.79720074808    2.11388582115    0.00000000000   -2.00000000000
    -10.56942910577   10.56942910577    0.00000000000   -2.00000000000
     -2.11388582115   14.79720074808    0.00000000000   -2.00000000000
      2.11388582115   14.79720074808    0.00000000000   -2.00000000000
     10.56942910577   10.56942910577    0.00000000000   -2.00000000000
     14.79720074808    2.11388582115    0.00000000000   -2.00000000000
     14.79720074808   -2.11388582115    0.00000000000   -2.00000000000
     10.56942910577  -10.56942910577    0.00000000000   -2.00000000000
      2.11388582115  -14.79720074808    0.00000000000   -2.00000000000
     -2.11388582115  -14.79720074808    0.00000000000   -2.00000000000
    -10.56942910577  -10.56942910577    0.00000000000   -2.00000000000
    -14.79720074808   -2.11388582115    0.00000000000   -2.00000000000
    -14.79720074808    0.00000000000   -2.11388582115   -2.00000000000
      0.00000000000   14.79720074808   -2.11388582115   -2.00000000000
     14.79720074808    0.00000000000   -2.11388582115   -2.00000000000
      0.00000000000  -14.79720074808   -2.11388582115   -2.00000000000
    -14.79720074808    2.11388582115   -2.11388582115    2.00000000000
    -10.56942910577   10.56942910577   -2.11388582115    2.00000000000
     -2.11388582115   14.79720074808   -2.11388582115    2.00000000000
      2.11388582115   14.79720074808   -2.11388582115    2.00000000000
     10.56942910577   10.56942910577   -2.11388582115    2.00000000000
     14.79720074808    2.11388582115   -2.11388582115    2.00000000000
     14.79720074808   -2.11388582115   -2.11388582115    2.00000000000
     10.56942910577  -10.56942910577   -2.11388582115    2.00000000000
      2.11388582115  -14.79720074808   -2.11388582115    2.00000000000
     -2.11388582115  -14.79720074808   -2.11388582115    2.00000000000
    -10.56942910577  -10.56942910577   -2.11388582115    2.00000000000
    -14.79720074808   -2.11388582115   -2.11388582115    2.00000000000
    -12.68331492692    8.45554328461    0.00000000000   -2.00000000000
     -8.45554328461   12.68331492692    0.00000000000   -2.00000000000
      8.45554328461   12.68331492692    0.00000000000   -2.00000000000
     12.68331492692    8.45554328461    0.00000000000   -2.00000000000
     12.68331492692   -8.45554328461    0.00000000000   -2.00000000000
      8.45554328461  -12.68331492692    0.00000000000   -2.00000000000
     -8.45554328461  -12.68331492692    0.00000000000   -2.00000000000
    -12.68331492692   -8.45554328461    0.00000000000   -2.00000000000
    -14.79720074808    4.22777164231    0.00000000000    2.00000000000
     -4.22777164231   14.79720074808    0.00000000000    2.00000000000
      4.22777164231   14.79720074808    0.00000000000    2.00000000000
     14.79720074808    4.22777164231    0.00000000000    2.00000000000
     14.79720074808   -4.22777164231    0.00000000000    2.00000000000
      4.22777164231  -14.79720074808    0.00000000000    2.00000000000
     -4.22777164231  -14.79720074808    0.00000000000    2.00000000000
    -14.79720074808   -4.22777164231    0.00000000000    2.00000000000
    -12.68331492692    8.45554328461   -2.11388582115    2.00000000000
     -8.45554328461   12.68331492692   -2.11388582115    2.00000000000
      8.45554328461   12.68331492692   -2.11388582115    2.00000000000
     12.68331492692    8.45554328461   -2.11388582115    2.00000000000
     12.68331492692   -8.45554328461   -2.11388582115    2.00000000000
      8.45554328461  -12.68331492692   -2.11388582115    2.00000000000
     -8.45554328461  -12.68331492692   -2.11388582115    2.00000000000
    -12.68331492692   -8.45554328461   -2.11388582115    2.00000000000
    -14.79720074808    4.22777164231   -2.11388582115   -2.00000000000
     -4.22777164231   14.79720074808   -2.11388582115   -2.00000000000
      4.22777164231   14.79720074808   -2.11388582115   -2.00000000000
     14.79720074808    4.22777164231   -2.11388582115   -2.00000000000
     14.79720074808   -4.22777164231   -2.11388582115   -2.00000000000
      4.22777164231  -14.79720074808   -2.11388582115   -2.00000000000
     -4.22777164231  -14.79720074808   -2.11388582115   -2.00000000000
    -14.79720074808   -4.22777164231   -2.11388582115   -2.00000000000
    -14.79720074808    6.34165746346    0.00000000000   -2.00000000000
     -6.34165746346   14.79720074808    0.00000000000   -2.00000000000
      6.34165746346   14.79720074808    0.00000000000   -2.00000000000
     14.79720074808    6.34165746346    0.00000000000   -2.00000000000
     14.79720074808   -6.34165746346    0.00000000000   -2.00000000000
      6.34165746346  -14.79720074808    0.00000000000   -2.00000000000
     -6.34165746346  -14.79720074808    0.00000000000   -2.00000000000
    -14.79720074808   -6.34165746346    0.00000000000   -2.00000000000
    -14.79720074808    6.34165746346   -2.11388582115    2.00000000000
     -6.34165746346   14.79720074808   -2.11388582115    2.00000000000
      6.34165746346   14.79720074808   -2.11388582115    2.00000000000
     14.79720074808    6.34165746346   -2.11388582115    2.00000000000
     14.79720074808   -6.34165746346   -2.11388582115    2.00000000000
      6.34165746346  -14.79720074808   -2.11388582115    2.00000000000
     -6.34165746346  -14.79720074808   -2.11388582115    2.00000000000
    -14.79720074808   -6.34165746346   -2.11388582115    2.00000000000
    -12.68331492692   10.56942910577    0.00000000000    2.00000000000
    -10.56942910577   12.68331492692    0.00000000000    2.00000000000
     10.56942910577   12.68331492692    0.00000000000    2.00000000000
     12.68331492692   10.56942910577    0.00000000000    2.00000000000
     12.68331492692  -10.56942910577    0.00000000000    2.00000000000
     10.56942910577  -12.68331492692    0.00000000000    2.00000000000
    -10.56942910577  -12.68331492692    0.00000000000    2.00000000000
    -12.68331492692  -10.56942910577    0.00000000000    2.00000000000
    -12.68331492692   10.56942910577   -2.11388582115   -2.00000000000
    -10.56942910577   12.68331492692   -2.11388582115   -2.00000000000
     10.56942910577   12.68331492692   -2.11388582115   -2.00000000000
     12.68331492692   10.56942910577   -2.11388582115   -2.00000000000
     12.68331492692  -10.56942910577   -2.11388582115   -2.00000000000
     10.56942910577  -12.68331492692   -2.11388582115   -2.00000000000
    -10.56942910577  -12.68331492692   -2.11388582115   -2.00000000000
    -12.68331492692  -10.56942910577   -2.11388582115   -2.00000000000
    -16.91108656923    0.00000000000    0.00000000000   -2.00000000000
      0.00000000000   16.91108656923    0.00000000000   -2.00000000000
     16.91108656923    0.00000000000    0.00000000000   -2.00000000000
      0.00000000000  -16.91108656923    0.00000000000   -2.00000000000
    -16.91108656923    2.11388582115    0.00000000000    2.00000000000
    -14.79720074808    8.45554328461    0.00000000000    2.00000000000
     -8.45554328461   14.79720074808    0.00000000000    2.00000000000
     -2.11388582115   16.91108656923    0.00000000000    2.00000000000
      2.11388582115   16.91108656923    0.00000000000    2.00000000000
      8.45554328461   14.79720074808    0.00000000000    2.00000000000
     14.79720074808    8.45554328461    0.00000000000    2.00000000000
     16.91108656923    2.11388582115    0.00000000000    2.00000000000
     16.91108656923   -2.11388582115    0.00000000000    2.00000000000
     14.79720074808   -8.45554328461    0.00000000000    2.00000000000
      8.45554328461  -14.79720074808    0.00000000000    2.00000000000
      2.11388582115  -16.91108656923    0.00000000000    2.00000000000
     -2.11388582115  -16.91108656923    0.00000000000    2.00000000000
     -8.45554328461  -14.79720074808    0.00000000000    2.00000000000
    -14.79720074808   -8.45554328461    0.00000000000    2.00000000000
    -16.91108656923   -2.11388582115    0.00000000000    2.00000000000
    -16.91108656923    0.00000000000   -2.11388582115    2.00000000000
      0.00000000000   16.91108656923   -2.11388582115    2.00000000000
     16.91108656923    0.00000000000   -2.11388582115    2.00000000000
      0.00000000000  -16.91108656923   -2.11388582115    2.00000000000
    -16.91108656923    2.11388582115   -2.11388582115   -2.00000000000
    -14.79720074808    8.45554328461   -2.11388582115   -2.00000000000
     -8.45554328461   14.79720074808   -2.11388582115   -2.00000000000
     -2.11388582115   16.91108656923   -2.11388582115   -2.00000000000
      2.11388582115   16.91108656923   -2.11388582115   -2.00000000000
      8.45554328461   14.79720074808   -2.11388582115   -2.00000000000
     14.79720074808    8.45554328461   -2.11388582115   -2.00000000000
     16.91108656923    2.11388582115   -2.11388582115   -2.00000000000
     16.91108656923   -2.11388582115   -2.11388582115   -2.00000000000
     14.79720074808   -8.45554328461   -2.11388582115   -2.00000000000
      8.45554328461  -14.79720074808   -2.11388582115   -2.00000000000
      2.11388582115  -16.91108656923   -2.11388582115   -2.00000000000
     -2.11388582115  -16.91108656923   -2.11388582115   -2.00000000000
     -8.45554328461  -14.79720074808   -2.11388582115   -2.00000000000
    -14.79720074808   -8.45554328461   -2.11388582115   -2.00000000000
    -16.91108656923   -2.11388582115   -2.11388582115   -2.00000000000
    -16.91108656923    4.22777164231    0.00000000000   -2.00000000000
     -4.22777164231   16.91108656923    0.00000000000   -2.00000000000
      4.22777164231   16.91108656923    0.00000000000   -2.00000000000
     16.91108656923    4.22777164231    0.00000000000   -2.00000000000
     16.91108656923   -4.22777164231    0.00000000000   -2.00000000000
      4.22777164231  -16.91108656923    0.00000000000   -2.00000000000
     -4.22777164231  -16.91108656923    0.00000000000   -2.00000000000
    -16.91108656923   -4.22777164231    0.00000000000   -2.00000000000
    -16.91108656923    4.22777164231   -2.11388582115    2.00000000000
     -4.22777164231   16.91108656923   -2.11388582115    2.00000000000
      4.22777164231   16.91108656923   -2.11388582115    2.00000000000
     16.91108656923    4.22777164231   -2.11388582115    2.00000000000
     16.91108656923   -4.22777164231   -2.11388582115    2.00000000000
      4.22777164231  -16.91108656923   -2.11388582115    2.00000000000
     -4.22777164231  -16.91108656923   -2.11388582115    2.00000000000
    -16.91108656923   -4.22777164231   -2.11388582115    2.00000000000
    -12.68331492692   12.68331492692    0.00000000000   -2.00000000000
     12.68331492692   12.68331492692    0.00000000000   -2.00000000000
     12.68331492692  -12.68331492692    0.00000000000   -2.00000000000
    -12.68331492692  -12.68331492692    0.00000000000   -2.00000000000
    -16.91108656923    6.34165746346    0.00000000000    2.00000000000
     -6.34165746346   16.91108656923    0.00000000000    2.00000000000
      6.34165746346   16.91108656923    0.00000000000    2.00000000000
     16.91108656923    6.34165746346    0.00000000000    2.00000000000
     16.91108656923   -6.34165746346    0.00000000000    2.00000000000
      6.34165746346  -16.91108656923    0.00000000000    2.00000000000
     -6.34165746346  -16.91108656923    0.00000000000    2.00000000000
    -16.91108656923   -6.34165746346    0.00000000000    2.00000000000
    -12.68331492692   12.68331492692   -2.11388582115    2.00000000000
     12.68331492692   12.68331492692   -2.11388582115    2.00000000000
     12.68331492692  -12.68331492692   -2.11388582115    2.00000000000
    -12.68331492692  -12.68331492692   -2.11388582115    2.00000000000
    -14.79720074808   10.56942910577    0.00000000000   -2.00000000000
    -10.56942910577   14.79720074808    0.00000000000   -2.00000000000
     10.56942910577   14.79720074808    0.00000000000   -2.00000000000
     14.79720074808   10.56942910577    0.00000000000   -2.00000000000
     14.79720074808  -10.56942910577    0.00000000000   -2.00000000000
     10.56942910577  -14.79720074808    0.00000000000   -2.00000000000
    -10.56942910577  -14.79720074808    0.00000000000   -2.00000000000
    -14.79720074808  -10.56942910577    0.00000000000   -2.00000000000
    -16.91108656923    6.34165746346   -2.11388582115   -2.00000000000
     -6.34165746346   16.91108656923   -2.11388582115   -2.00000000000
      6.34165746346   16.91108656923   -2.11388582115   -2.00000000000
     16.91108656923    6.34165746346   -2.11388582115   -2.00000000000
     16.91108656923   -6.34165746346   -2.11388582115   -2.00000000000
      6.34165746346  -16.91108656923   -2.11388582115   -2.00000000000
     -6.34165746346  -16.91108656923   -2.11388582115   -2.00000000000
    -16.91108656923   -6.34165746346   -2.11388582115   -2.00000000000
    -14.79720074808   10.56942910577   -2.11388582115    2.00000000000
    -10.56942910577   14.79720074808   -2.11388582115    2.00000000000
     10.56942910577   14.79720074808   -2.11388582115    2.00000000000
     14.79720074808   10.56942910577   -2.11388582115    2.00000000000
     14.79720074808  -10.56942910577   -2.11388582115    2.00000000000
     10.56942910577  -14.79720074808   -2.11388582115    2.00000000000
    -10.56942910577  -14.79720074808   -2.11388582115    2.00000000000
    -14.79720074808  -10.56942910577   -2.11388582115    2.00000000000
    -16.91108656923    8.45554328461    0.00000000000   -2.00000000000
     -8.45554328461   16.91108656923    0.00000000000   -2.00000000000
      8.45554328461   16.91108656923    0.00000000000   -2.00000000000
     16.91108656923    8.45554328461    0.00000000000   -2.00000000000
     16.91108656923   -8.45554328461    0.00000000000   -2.00000000000
      8.45554328461  -16.91108656923    0.00000000000   -2.00000000000
     -8.45554328461  -16.91108656923    0.00000000000   -2.00000000000
    -16.91108656923   -8.45554328461    0.00000000000   -2.00000000000
    -19.02497239038    0.00000000000    0.00000000000    2.00000000000
      0.00000000000   19.02497239038    0.00000000000    2.00000000000
     19.02497239038    0.00000000000    0.00000000000    2.00000000000
      0.00000000000  -19.02497239038    0.00000000000    2.00000000000
    -16.91108656923    8.45554328461   -2.11388582115    2.00000000000
     -8.45554328461   16.91108656923   -2.11388582115    2.00000000000
      8.45554328461   16.91108656923   -2.11388582115    2.00000000000
     16.91108656923    8.45554328461   -2.11388582115    2.00000000000
     16.91108656923   -8.45554328461   -2.11388582115    2.00000000000
      8.45554328461  -16.91108656923   -2.11388582115    2.00000000000
     -8.45554328461  -16.91108656923   -2.11388582115    2.00000000000
    -16.91108656923   -8.45554328461   -2.11388582115    2.00000000000
    -19.02497239038    2.11388582115    0.00000000000   -2.00000000000
     -2.11388582115   19.02497239038    0.00000000000   -2.00000000000
      2.11388582115   19.02497239038    0.00000000000   -2.00000000000
     19.02497239038    2.11388582115    0.00000000000   -2.00000000000
     19.02497239038   -2.11388582115    0.00000000000   -2.00000000000
      2.11388582115  -19.02497239038    0.00000000000   -2.00000000000
     -2.11388582115  -19.02497239038    0.00000000000   -2.00000000000
    -19.02497239038   -2.11388582115    0.00000000000   -2.00000000000
    -19.02497239038    0.00000000000   -2.11388582115   -2.00000000000
      0.00000000000   19.02497239038   -2.11388582115   -2.00000000000
     19.02497239038    0.00000000000   -2.11388582115   -2.00000000000
      0.00000000000  -19.02497239038   -2.11388582115   -2.00000000000
    -19.02497239038    2.11388582115   -2.11388582115    2.00000000000
     -2.11388582115   19.02497239038   -2.11388582115    2.00000000000
      2.11388582115   19.02497239038   -2.11388582115    2.00000000000
     19.02497239038    2.11388582115   -2.11388582115    2.00000000000
     19.02497239038   -2.11388582115   -2.11388582115    2.00000000000
      2.11388582115  -19.02497239038   -2.11388582115    2.00000000000
     -2.11388582115  -19.02497239038   -2.11388582115    2.00000000000
    -19.02497239038   -2.11388582115   -2.11388582115    2.00000000000
    -19.02497239038    4.22777164231    0.00000000000    2.00000000000
    -14.79720074808   12.68331492692    0.00000000000    2.00000000000
    -12.68331492692   14.79720074808    0.00000000000    2.00000000000
     -4.22777164231   19.02497239038    0.00000000000    2.00000000000
      4.22777164231   19.02497239038    0.00000000000    2.00000000000
     12.68331492692   14.79720074808    0.00000000000    2.00000000000
     14.79720074808   12.68331492692    0.00000000000    2.00000000000
     19.02497239038    4.22777164231    0.00000000000    2.00000000000
     19.02497239038   -4.22777164231    0.00000000000    2.00000000000
     14.79720074808  -12.68331492692    0.00000000000    2.00000000000
     12.68331492692  -14.79720074808    0.00000000000    2.00000000000
      4.22777164231  -19.02497239038    0.00000000000    2.00000000000
     -4.22777164231  -19.02497239038    0.00000000000    2.00000000000
    -12.68331492692  -14.79720074808    0.00000000000    2.00000000000
    -14.79720074808  -12.68331492692    0.00000000000    2.00000000000
    -19.02497239038   -4.22777164231    0.00000000000    2.00000000000
    -19.02497239038    4.22777164231   -2.11388582115   -2.00000000000
    -14.79720074808   12.68331492692   -2.11388582115   -2.00000000000
    -12.68331492692   14.79720074808   -2.11388582115   -2.00000000000
     -4.22777164231   19.02497239038   -2.11388582115   -2.00000000000
      4.22777164231   19.02497239038   -2.11388582115   -2.00000000000
     12.68331492692   14.79720074808   -2.11388582115   -2.00000000000
     14.79720074808   12.68331492692   -2.11388582115   -2.00000000000
     19.02497239038    4.22777164231   -2.11388582115   -2.00000000000
     19.02497239038   -4.22777164231   -2.11388582115   -2.00000000000
     14.79720074808  -12.68331492692   -2.11388582115   -2.00000000000
     12.68331492692  -14.79720074808   -2.11388582115   -2.00000000000
      4.22777164231  -19.02497239038   -2.11388582115   -2.00000000000
     -4.22777164231  -19.02497239038   -2.11388582115   -2.00000000000
    -12.68331492692  -14.79720074808   -2.11388582115   -2.00000000000
    -14.79720074808  -12.68331492692   -2.11388582115   -2.00000000000
    -19.02497239038   -4.22777164231   -2.11388582115   -2.00000000000
    -16.91108656923   10.56942910577    0.00000000000    2.00000000000
    -10.56942910577   16.91108656923    0.00000000000    2.00000000000
     10.56942910577   16.91108656923    0.00000000000    2.00000000000
     16.91108656923   10.56942910577    0.00000000000    2.00000000000
     16.91108656923  -10.56942910577    0.00000000000    2.00000000000
     10.56942910577  -16.91108656923    0.00000000000    2.00000000000
    -10.56942910577  -16.91108656923    0.00000000000    2.00000000000
    -16.91108656923  -10.56942910577    0.00000000000    2.00000000000
    -19.02497239038    6.34165746346    0.00000000000   -2.00000000000
     -6.34165746346   19.02497239038    0.00000000000   -2.00000000000
      6.34165746346   19.02497239038    0.00000000000   -2.00000000000
     19.02497239038    6.34165746346    0.00000000000   -2.00000000000
     19.02497239038   -6.34165746346    0.00000000000   -2.00000000000
      6.34165746346  -19.02497239038    0.00000000000   -2.00000000000
     -6.34165746346  -19.02497239038    0.00000000000   -2.00000000000
    -19.02497239038   -6.34165746346    0.00000000000   -2.00000000000
    -16.91108656923   10.56942910577   -2.11388582115   -2.00000000000
    -10.56942910577   16.91108656923   -2.11388582115   -2.00000000000
     10.56942910577   16.91108656923   -2.11388582115   -2.00000000000
     16.91108656923   10.56942910577   -2.11388582115   -2.00000000000
     16.91108656923  -10.56942910577   -2.11388582115   -2.00000000000
     10.56942910577  -16.91108656923   -2.11388582115   -2.00000000000
    -10.56942910577  -16.91108656923   -2.11388582115   -2.00000000000
    -16.91108656923  -10.56942910577   -2.11388582115   -2.00000000000
    -19.02497239038    6.34165746346   -2.11388582115    2.00000000000
     -6.34165746346   19.02497239038   -2.11388582115    2.00000000000
      6.34165746346   19.02497239038   -2.11388582115    2.00000000000
     19.02497239038    6.34165746346   -2.11388582115    2.00000000000
     19.02497239038   -6.34165746346   -2.11388582115    2.00000000000
      6.34165746346  -19.02497239038   -2.11388582115    2.00000000000
     -6.34165746346  -19.02497239038   -2.11388582115    2.00000000000
    -19.02497239038   -6.34165746346   -2.11388582115    2.00000000000
    -19.02497239038    8.45554328461    0.00000000000    2.00000000000
     -8.45554328461   19.02497239038    0.00000000000    2.00000000000
      8.45554328461   19.02497239038    0.00000000000    2.00000000000
     19.02497239038    8.45554328461    0.00000000000    2.00000000000
     19.02497239038   -8.45554328461    0.00000000000    2.00000000000
      8.45554328461  -19.02497239038    0.00000000000    2.00000000000
     -8.45554328461  -19.02497239038    0.00000000000    2.00000000000
    -19.02497239038   -8.45554328461    0.00000000000    2.00000000000
    -14.79720074808   14.79720074808    0.00000000000   -2.00000000000
     14.79720074808   14.79720074808    0.00000000000   -2.00000000000
     14.79720074808  -14.79720074808    0.00000000000   -2.00000000000
    -14.79720074808  -14.79720074808    0.00000000000   -2.00000000000
    -19.02497239038    8.45554328461   -2.11388582115   -2.00000000000
     -8.45554328461   19.02497239038   -2.11388582115   -2.00000000000
      8.45554328461   19.02497239038   -2.11388582115   -2.00000000000
     19.02497239038    8.45554328461   -2.11388582115   -2.00000000000
     19.02497239038   -8.45554328461   -2.11388582115   -2.00000000000
      8.45554328461  -19.02497239038   -2.11388582115   -2.00000000000
     -8.45554328461  -19.02497239038   -2.11388582115   -2.00000000000
    -19.02497239038   -8.45554328461   -2.11388582115   -2.00000000000
    -14.79720074808   14.79720074808   -2.11388582115    2.00000000000
     14.79720074808   14.79720074808   -2.11388582115    2.00000000000
     14.79720074808  -14.79720074808   -2.11388582115    2.00000000000
    -14.79720074808  -14.79720074808   -2.11388582115    2.00000000000
    -21.13885821154    0.00000000000    0.00000000000   -2.00000000000
    -16.91108656923   12.68331492692    0.00000000000   -2.00000000000
    -12.68331492692   16.91108656923    0.00000000000   -2.00000000000
      0.00000000000   21.13885821154    0.00000000000   -2.00000000000
     12.68331492692   16.91108656923    0.00000000000   -2.00000000000
     16.91108656923   12.68331492692    0.00000000000   -2.00000000000
     21.13885821154    0.00000000000    0.00000000000   -2.00000000000
     16.91108656923  -12.68331492692    0.00000000000   -2.00000000000
     12.68331492692  -16.91108656923    0.00000000000   -2.00000000000
      0.00000000000  -21.13885821154    0.00000000000   -2.00000000000
    -12.68331492692  -16.91108656923    0.00000000000   -2.00000000000
    -16.91108656923  -12.68331492692    0.00000000000   -2.00000000000
    -21.13885821154    2.11388582115    0.00000000000    2.00000000000
     -2.11388582115   21.13885821154    0.00000000000    2.00000000000
      2.11388582115   21.13885821154    0.00000000000    2.00000000000
     21.13885821154    2.11388582115    0.00000000000    2.00000000000
     21.13885821154   -2.11388582115    0.00000000000    2.00000000000
      2.11388582115  -21.13885821154    0.00000000000    2.00000000000
     -2.11388582115  -21.13885821154    0.00000000000    2.00000000000
    -21.13885821154   -2.11388582115    0.00000000000    2.00000000000
    -21.13885821154    0.00000000000   -2.11388582115    2.00000000000
    -16.91108656923   12.68331492692   -2.11388582115    2.00000000000
    -12.68331492692   16.91108656923   -2.11388582115    2.00000000000
      0.00000000000   21.13885821154   -2.11388582115    2.00000000000
     12.68331492692   16.91108656923   -2.11388582115    2.00000000000
     16.91108656923   12.68331492692   -2.11388582115    2.00000000000
     21.13885821154    0.00000000000   -2.11388582115    2.00000000000
     16.91108656923  -12.68331492692   -2.11388582115    2.00000000000
     12.68331492692  -16.91108656923   -2.11388582115    2.00000000000
      0.00000000000  -21.13885821154   -2.11388582115    2.00000000000
    -12.68331492692  -16.91108656923   -2.11388582115    2.00000000000
    -16.91108656923  -12.68331492692   -2.11388582115    2.00000000000
    -21.13885821154    2.11388582115   -2.11388582115   -2.00000000000
     -2.11388582115   21.13885821154   -2.11388582115   -2.00000000000
      2.11388582115   21.13885821154   -2.11388582115   -2.00000000000
     21.13885821154    2.11388582115   -2.11388582115   -2.00000000000
     21.13885821154   -2.11388582115   -2.11388582115   -2.00000000000
      2.11388582115  -21.13885821154   -2.11388582115   -2.00000000000
     -2.11388582115  -21.13885821154   -2.11388582115   -2.00000000000
    -21.13885821154   -2.11388582115   -2.11388582115   -2.00000000000
    -21.13885821154    4.22777164231    0.00000000000   -2.00000000000
     -4.22777164231   21.13885821154    0.00000000000   -2.00000000000
      4.22777164231   21.13885821154    0.00000000000   -2.00000000000
     21.13885821154    4.22777164231    0.00000000000   -2.00000000000
     21.13885821154   -4.22777164231    0.00000000000   -2.00000000000
      4.22777164231  -21.13885821154    0.00000000000   -2.00000000000
     -4.22777164231  -21.13885821154    0.00000000000   -2.00000000000
    -21.13885821154   -4.22777164231    0.00000000000   -2.00000000000
    -21.13885821154    4.22777164231   -2.11388582115    2.00000000000
     -4.22777164231   21.13885821154   -2.11388582115    2.00000000000
      4.22777164231   21.13885821154   -2.11388582115    2.00000000000
     21.13885821154    4.22777164231   -2.11388582115    2.00000000000
     21.13885821154   -4.22777164231   -2.11388582115    2.00000000000
      4.22777164231  -21.13885821154   -2.11388582115    2.00000000000
     -4.22777164231  -21.13885821154   -2.11388582115    2.00000000000
    -21.13885821154   -4.22777164231   -2.11388582115    2.00000000000
    -19.02497239038   10.56942910577    0.00000000000   -2.00000000000
    -10.56942910577   19.02497239038    0.00000000000   -2.00000000000
     10.56942910577   19.02497239038    0.00000000000   -2.00000000000
     19.02497239038   10.56942910577    0.00000000000   -2.00000000000
     19.02497239038  -10.56942910577    0.00000000000   -2.00000000000
     10.56942910577  -19.02497239038    0.00000000000   -2.00000000000
    -10.56942910577  -19.02497239038    0.00000000000   -2.00000000000
    -19.02497239038  -10.56942910577    0.00000000000   -2.00000000000
    -19.02497239038   10.56942910577   -2.11388582115    2.00000000000
    -10.56942910577   19.02497239038   -2.11388582115    2.00000000000
     10.56942910577   19.02497239038   -2.11388582115    2.00000000000
     19.02497239038   10.56942910577   -2.11388582115    2.00000000000
     19.02497239038  -10.56942910577   -2.11388582115    2.00000000000
     10.56942910577  -19.02497239038   -2.11388582115    2.00000000000
    -10.56942910577  -19.02497239038   -2.11388582115    2.00000000000
    -19.02497239038  -10.56942910577   -2.11388582115    2.00000000000
    -21.13885821154    6.34165746346    0.00000000000    2.00000000000
     -6.34165746346   21.13885821154    0.00000000000    2.00000000000
      6.34165746346   21.13885821154    0.00000000000    2.00000000000
     21.13885821154    6.34165746346    0.00000000000    2.00000000000
     21.13885821154   -6.34165746346    0.00000000000    2.00000000000
      6.34165746346  -21.13885821154    0.00000000000    2.00000000000
     -6.34165746346  -21.13885821154    0.00000000000    2.00000000000
    -21.13885821154   -6.34165746346    0.00000000000    2.00000000000
    -21.13885821154    6.34165746346   -2.11388582115   -2.00000000000
     -6.34165746346   21.13885821154   -2.11388582115   -2.00000000000
      6.34165746346   21.13885821154   -2.11388582115   -2.00000000000
     21.13885821154    6.34165746346   -2.11388582115   -2.00000000000
     21.13885821154   -6.34165746346   -2.11388582115   -2.00000000000
      6.34165746346  -21.13885821154   -2.11388582115   -2.00000000000
     -6.34165746346  -21.13885821154   -2.11388582115   -2.00000000000
    -21.13885821154   -6.34165746346   -2.11388582115   -2.00000000000
    -16.91108656923   14.79720074808    0.00000000000    2.00000000000
    -14.79720074808   16.91108656923    0.00000000000    2.00000000000
     14.79720074808   16.91108656923    0.00000000000    2.00000000000
     16.91108656923   14.79720074808    0.00000000000    2.00000000000
     16.91108656923  -14.79720074808    0.00000000000    2.00000000000
     14.79720074808  -16.91108656923    0.00000000000    2.00000000000
    -14.79720074808  -16.91108656923    0.00000000000    2.00000000000
    -16.91108656923  -14.79720074808    0.00000000000    2.00000000000
    -16.91108656923   14.79720074808   -2.11388582115   -2.00000000000
    -14.79720074808   16.91108656923   -2.11388582115   -2.00000000000
     14.79720074808   16.91108656923   -2.11388582115   -2.00000000000
     16.91108656923   14.79720074808   -2.11388582115   -2.00000000000
     16.91108656923  -14.79720074808   -2.11388582115   -2.00000000000
     14.79720074808  -16.91108656923   -2.11388582115   -2.00000000000
    -14.79720074808  -16.91108656923   -2.11388582115   -2.00000000000
    -16.91108656923  -14.79720074808   -2.11388582115   -2.00000000000
    -21.13885821154    8.45554328461    0.00000000000   -2.00000000000
     -8.45554328461   21.13885821154    0.00000000000   -2.00000000000
      8.45554328461   21.13885821154    0.00000000000   -2.00000000000
     21.13885821154    8.45554328461    0.00000000000   -2.00000000000
     21.13885821154   -8.45554328461    0.00000000000   -2.00000000000
      8.45554328461  -21.13885821154    0.00000000000   -2.00000000000
     -8.45554328461  -21.13885821154    0.00000000000   -2.00000000000
    -21.13885821154   -8.45554328461    0.00000000000   -2.00000000000
    -19.02497239038   12.68331492692    0.00000000000    2.00000000000
    -12.68331492692   19.02497239038    0.00000000000    2.00000000000
     12.68331492692   19.02497239038    0.00000000000    2.00000000000
     19.02497239038   12.68331492692    0.00000000000    2.00000000000
     19.02497239038  -12.68331492692    0.00000000000    2.00000000000
     12.68331492692  -19.02497239038    0.00000000000    2.00000000000
    -12.68331492692  -19.02497239038    0.00000000000    2.00000000000
    -19.02497239038  -12.68331492692    0.00000000000    2.00000000000
    -21.13885821154    8.45554328461   -2.11388582115    2.00000000000
     -8.45554328461   21.13885821154   -2.11388582115    2.00000000000
      8.45554328461   21.13885821154   -2.11388582115    2.00000000000
     21.13885821154    8.45554328461   -2.11388582115    2.00000000000
     21.13885821154   -8.45554328461   -2.11388582115    2.00000000000
      8.45554328461  -21.13885821154   -2.11388582115    2.00000000000
     -8.45554328461  -21.13885821154   -2.11388582115    2.00000000000
    -21.13885821154   -8.45554328461   -2.11388582115    2.00000000000
    -19.02497239038   12.68331492692   -2.11388582115   -2.00000000000
    -12.68331492692   19.02497239038   -2.11388582115   -2.00000000000
     12.68331492692   19.02497239038   -2.11388582115   -2.00000000000
     19.02497239038   12.68331492692   -2.11388582115   -2.00000000000
     19.02497239038  -12.68331492692   -2.11388582115   -2.00000000000
     12.68331492692  -19.02497239038   -2.11388582115   -2.00000000000
    -12.68331492692  -19.02497239038   -2.11388582115   -2.00000000000
    -19.02497239038  -12.68331492692   -2.11388582115   -2.00000000000
    -23.25274403269    0.00000000000    0.00000000000    2.00000000000
      0.00000000000   23.25274403269    0.00000000000    2.00000000000
     23.25274403269    0.00000000000    0.00000000000    2.00000000000
      0.00000000000  -23.25274403269    0.00000000000    2.00000000000
    -23.25274403269    2.11388582115    0.00000000000   -2.00000000000
     -2.11388582115   23.25274403269    0.00000000000   -2.00000000000
      2.11388582115   23.25274403269    0.00000000000   -2.00000000000
     23.25274403269    2.11388582115    0.00000000000   -2.00000000000
     23.25274403269   -2.11388582115    0.00000000000   -2.00000000000
      2.11388582115  -23.25274403269    0.00000000000   -2.00000000000
     -2.11388582115  -23.25274403269    0.00000000000   -2.00000000000
    -23.25274403269   -2.11388582115    0.00000000000   -2.00000000000
    -23.25274403269    0.00000000000   -2.11388582115   -2.00000000000
      0.00000000000   23.25274403269   -2.11388582115   -2.00000000000
     23.25274403269    0.00000000000   -2.11388582115   -2.00000000000
      0.00000000000  -23.25274403269   -2.11388582115   -2.00000000000
    -23.25274403269    2.11388582115   -2.11388582115    2.00000000000
     -2.11388582115   23.25274403269   -2.11388582115    2.00000000000
      2.11388582115   23.25274403269   -2.11388582115    2.00000000000
     23.25274403269    2.11388582115   -2.11388582115    2.00000000000
     23.25274403269   -2.11388582115   -2.11388582115    2.00000000000
      2.11388582115  -23.25274403269   -2.11388582115    2.00000000000
     -2.11388582115  -23.25274403269   -2.11388582115    2.00000000000
    -23.25274403269   -2.11388582115   -2.11388582115    2.00000000000
    -23.25274403269    4.22777164231    0.00000000000    2.00000000000
    -21.13885821154   10.56942910577    0.00000000000    2.00000000000
    -10.56942910577   21.13885821154    0.00000000000    2.00000000000
     -4.22777164231   23.25274403269    0.00000000000    2.00000000000
      4.22777164231   23.25274403269    0.00000000000    2.00000000000
     10.56942910577   21.13885821154    0.00000000000    2.00000000000
     21.13885821154   10.56942910577    0.00000000000    2.00000000000
     23.25274403269    4.22777164231    0.00000000000    2.00000000000
     23.25274403269   -4.22777164231    0.00000000000    2.00000000000
     21.13885821154  -10.56942910577    0.00000000000    2.00000000000
     10.56942910577  -21.13885821154    0.00000000000    2.00000000000
      4.22777164231  -23.25274403269    0.00000000000    2.00000000000
     -4.22777164231  -23.25274403269    0.00000000000    2.00000000000
    -10.56942910577  -21.13885821154    0.00000000000    2.00000000000
    -21.13885821154  -10.56942910577    0.00000000000    2.00000000000
    -23.25274403269   -4.22777164231    0.00000000000    2.00000000000
    -23.25274403269    4.22777164231   -2.11388582115   -2.00000000000
    -21.13885821154   10.56942910577   -2.11388582115   -2.00000000000
    -10.56942910577   21.13885821154   -2.11388582115   -2.00000000000
     -4.22777164231   23.25274403269   -2.11388582115   -2.00000000000
      4.22777164231   23.25274403269   -2.11388582115   -2.00000000000
     10.56942910577   21.13885821154   -2.11388582115   -2.00000000000
     21.13885821154   10.56942910577   -2.11388582115   -2.00000000000
     23.25274403269    4.22777164231   -2.11388582115   -2.00000000000
     23.25274403269   -4.22777164231   -2.11388582115   -2.00000000000
     21.13885821154  -10.56942910577   -2.11388582115   -2.00000000000
     10.56942910577  -21.13885821154   -2.11388582115   -2.00000000000
      4.22777164231  -23.25274403269   -2.11388582115   -2.00000000000
     -4.22777164231  -23.25274403269   -2.11388582115   -2.00000000000
    -10.56942910577  -21.13885821154   -2.11388582115   -2.00000000000
    -21.13885821154  -10.56942910577   -2.11388582115   -2.00000000000
    -23.25274403269   -4.22777164231   -2.11388582115   -2.00000000000
    -16.91108656923   16.91108656923    0.00000000000   -2.00000000000
     16.91108656923   16.91108656923    0.00000000000   -2.00000000000
     16.91108656923  -16.91108656923    0.00000000000   -2.00000000000
    -16.91108656923  -16.91108656923    0.00000000000   -2.00000000000
    -16.91108656923   16.91108656923   -2.11388582115    2.00000000000
     16.91108656923   16.91108656923   -2.11388582115    2.00000000000
     16.91108656923  -16.91108656923   -2.11388582115    2.00000000000
    -16.91108656923  -16.91108656923   -2.11388582115    2.00000000000
    -23.25274403269    6.34165746346    0.00000000000   -2.00000000000
    -19.02497239038   14.79720074808    0.00000000000   -2.00000000000
    -14.79720074808   19.02497239038    0.00000000000   -2.00000000000
     -6.34165746346   23.25274403269    0.00000000000   -2.00000000000
      6.34165746346   23.25274403269    0.00000000000   -2.00000000000
     14.79720074808   19.02497239038    0.00000000000   -2.00000000000
     19.02497239038   14.79720074808    0.00000000000   -2.00000000000
     23.25274403269    6.34165746346    0.00000000000   -2.00000000000
     23.25274403269   -6.34165746346    0.00000000000   -2.00000000000
     19.02497239038  -14.79720074808    0.00000000000   -2.00000000000
     14.79720074808  -19.02497239038    0.00000000000   -2.00000000000
      6.34165746346  -23.25274403269    0.00000000000   -2.00000000000
     -6.34165746346  -23.25274403269    0.00000000000   -2.00000000000
    -14.79720074808  -19.02497239038    0.00000000000   -2.00000000000
    -19.02497239038  -14.79720074808    0.00000000000   -2.00000000000
    -23.25274403269   -6.34165746346    0.00000000000   -2.00000000000
    -23.25274403269    6.34165746346   -2.11388582115    2.00000000000
    -19.02497239038   14.79720074808   -2.11388582115    2.00000000000
    -14.79720074808   19.02497239038   -2.11388582115    2.00000000000
     -6.34165746346   23.25274403269   -2.11388582115    2.00000000000
      6.34165746346   23.25274403269   -2.11388582115    2.00000000000
     14.79720074808   19.02497239038   -2.11388582115    2.00000000000
     19.02497239038   14.79720074808   -2.11388582115    2.00000000000
     23.25274403269    6.34165746346   -2.11388582115    2.00000000000
     23.25274403269   -6.34165746346   -2.11388582115    2.00000000000
     19.02497239038  -14.79720074808   -2.11388582115    2.00000000000
     14.79720074808  -19.02497239038   -2.11388582115    2.00000000000
      6.34165746346  -23.25274403269   -2.11388582115    2.00000000000
     -6.34165746346  -23.25274403269   -2.11388582115    2.00000000000
    -14.79720074808  -19.02497239038   -2.11388582115    2.00000000000
    -19.02497239038  -14.79720074808   -2.11388582115    2.00000000000
    -23.25274403269   -6.34165746346   -2.11388582115    2.00000000000
    -21.13885821154   12.68331492692    0.00000000000   -2.00000000000
    -12.68331492692   21.13885821154    0.00000000000   -2.00000000000
     12.68331492692   21.13885821154    0.00000000000   -2.00000000000
     21.13885821154   12.68331492692    0.00000000000   -2.00000000000
     21.13885821154  -12.68331492692    0.00000000000   -2.00000000000
     12.68331492692  -21.13885821154    0.00000000000   -2.00000000000
    -12.68331492692  -21.13885821154    0.00000000000   -2.00000000000
    -21.13885821154  -12.68331492692    0.00000000000   -2.00000000000
    -23.25274403269    8.45554328461    0.00000000000    2.00000000000
     -8.45554328461   23.25274403269    0.00000000000    2.00000000000
      8.45554328461   23.25274403269    0.00000000000    2.00000000000
     23.25274403269    8.45554328461    0.00000000000    2.00000000000
     23.25274403269   -8.45554328461    0.00000000000    2.00000000000
      8.45554328461  -23.25274403269    0.00000000000    2.00000000000
     -8.45554328461  -23.25274403269    0.00000000000    2.00000000000
    -23.25274403269   -8.45554328461    0.00000000000    2.00000000000
    -21.13885821154   12.68331492692   -2.11388582115    2.00000000000
    -12.68331492692   21.13885821154   -2.11388582115    2.00000000000
     12.68331492692   21.13885821154   -2.11388582115    2.00000000000
     21.13885821154   12.68331492692   -2.11388582115    2.00000000000
     21.13885821154  -12.68331492692   -2.11388582115    2.00000000000
     12.68331492692  -21.13885821154   -2.11388582115    2.00000000000
    -12.68331492692  -21.13885821154   -2.11388582115    2.00000000000
    -21.13885821154  -12.68331492692   -2.11388582115    2.00000000000
    -23.25274403269    8.45554328461   -2.11388582115   -2.00000000000
     -8.45554328461   23.25274403269   -2.11388582115   -2.00000000000
      8.45554328461   23.25274403269   -2.11388582115   -2.00000000000
     23.25274403269    8.45554328461   -2.11388582115   -2.00000000000
     23.25274403269   -8.45554328461   -2.11388582115   -2.00000000000
      8.45554328461  -23.25274403269   -2.11388582115   -2.00000000000
     -8.45554328461  -23.25274403269   -2.11388582115   -2.00000000000
    -23.25274403269   -8.45554328461   -2.11388582115   -2.00000000000
    -25.36662985384    0.00000000000    0.00000000000   -2.00000000000
      0.00000000000   25.36662985384    0.00000000000   -2.00000000000
     25.36662985384    0.00000000000    0.00000000000   -2.00000000000
      0.00000000000  -25.36662985384    0.00000000000   -2.00000000000
    -25.36662985384    2.11388582115    0.00000000000    2.00000000000
    -19.02497239038   16.91108656923    0.00000000000    2.00000000000
    -16.91108656923   19.02497239038    0.00000000000    2.00000000000
     -2.11388582115   25.36662985384    0.00000000000    2.00000000000
      2.11388582115   25.36662985384    0.00000000000    2.00000000000
     16.91108656923   19.02497239038    0.00000000000    2.00000000000
     19.02497239038   16.91108656923    0.00000000000    2.00000000000
     25.36662985384    2.11388582115    0.00000000000    2.00000000000
     25.36662985384   -2.11388582115    0.00000000000    2.00000000000
     19.02497239038  -16.91108656923    0.00000000000    2.00000000000
     16.91108656923  -19.02497239038    0.00000000000    2.00000000000
      2.11388582115  -25.36662985384    0.00000000000    2.00000000000
     -2.11388582115  -25.36662985384    0.00000000000    2.00000000000
    -16.91108656923  -19.02497239038    0.00000000000    2.00000000000
    -19.02497239038  -16.91108656923    0.00000000000    2.00000000000
    -25.36662985384   -2.11388582115    0.00000000000    2.00000000000
    -25.36662985384    0.00000000000   -2.11388582115    2.00000000000
      0.00000000000   25.36662985384   -2.11388582115    2.00000000000
     25.36662985384    0.00000000000   -2.11388582115    2.00000000000
      0.00000000000  -25.36662985384   -2.11388582115    2.00000000000
    -23.25274403269   10.56942910577    0.00000000000   -2.00000000000
    -10.56942910577   23.25274403269    0.00000000000   -2.00000000000
     10.56942910577   23.25274403269    0.00000000000   -2.00000000000
     23.25274403269   10.56942910577    0.00000000000   -2.00000000000
     23.25274403269  -10.56942910577    0.00000000000   -2.00000000000
     10.56942910577  -23.25274403269    0.00000000000   -2.00000000000
    -10.56942910577  -23.25274403269    0.00000000000   -2.00000000000
    -23.25274403269  -10.56942910577    0.00000000000   -2.00000000000
    -25.36662985384    2.11388582115   -2.11388582115   -2.00000000000
    -19.02497239038   16.91108656923   -2.11388582115   -2.00000000000
    -16.91108656923   19.02497239038   -2.11388582115   -2.00000000000
     -2.11388582115   25.36662985384   -2.11388582115   -2.00000000000
      2.11388582115   25.36662985384   -2.11388582115   -2.00000000000
     16.91108656923   19.02497239038   -2.11388582115   -2.00000000000
     19.02497239038   16.91108656923   -2.11388582115   -2.00000000000
     25.36662985384    2.11388582115   -2.11388582115   -2.00000000000
     25.36662985384   -2.11388582115   -2.11388582115   -2.00000000000
     19.02497239038  -16.91108656923   -2.11388582115   -2.00000000000
     16.91108656923  -19.02497239038   -2.11388582115   -2.00000000000
      2.11388582115  -25.36662985384   -2.11388582115   -2.00000000000
     -2.11388582115  -25.36662985384   -2.11388582115   -2.00000000000
    -16.91108656923  -19.02497239038   -2.11388582115   -2.00000000000
    -19.02497239038  -16.91108656923   -2.11388582115   -2.00000000000
    -25.36662985384   -2.11388582115   -2.11388582115   -2.00000000000
    -23.25274403269   10.56942910577   -2.11388582115    2.00000000000
    -10.56942910577   23.25274403269   -2.11388582115    2.00000000000
     10.56942910577   23.25274403269   -2.11388582115    2.00000000000
     23.25274403269   10.56942910577   -2.11388582115    2.00000000000
     23.25274403269  -10.56942910577   -2.11388582115    2.00000000000
     10.56942910577  -23.25274403269   -2.11388582115    2.00000000000
    -10.56942910577  -23.25274403269   -2.11388582115    2.00000000000
    -23.25274403269  -10.56942910577   -2.11388582115    2.00000000000
    -25.36662985384    4.22777164231    0.00000000000   -2.00000000000
     -4.22777164231   25.36662985384    0.00000000000   -2.00000000000
      4.22777164231   25.36662985384    0.00000000000   -2.00000000000
     25.36662985384    4.22777164231    0.00000000000   -2.00000000000
     25.36662985384   -4.22777164231    0.00000000000   -2.00000000000
      4.22777164231  -25.36662985384    0.00000000000   -2.00000000000
     -4.22777164231  -25.36662985384    0.00000000000   -2.00000000000
    -25.36662985384   -4.22777164231    0.00000000000   -2.00000000000
    -21.13885821154   14.79720074808    0.00000000000    2.00000000000
    -14.79720074808   21.13885821154    0.00000000000    2.00000000000
     14.79720074808   21.13885821154    0.00000000000    2.00000000000
     21.13885821154   14.79720074808    0.00000000000    2.00000000000
     21.13885821154  -14.79720074808    0.00000000000    2.00000000000
     14.79720074808  -21.13885821154    0.00000000000    2.00000000000
    -14.79720074808  -21.13885821154    0.00000000000    2.00000000000
    -21.13885821154  -14.79720074808    0.00000000000    2.00000000000
    -25.36662985384    4.22777164231   -2.11388582115    2.00000000000
     -4.22777164231   25.36662985384   -2.11388582115    2.00000000000
      4.22777164231   25.36662985384   -2.11388582115    2.00000000000
     25.36662985384    4.22777164231   -2.11388582115    2.00000000000
     25.36662985384   -4.22777164231   -2.11388582115    2.00000000000
      4.22777164231  -25.36662985384   -2.11388582115    2.00000000000
     -4.22777164231  -25.36662985384   -2.11388582115    2.00000000000
    -25.36662985384   -4.22777164231   -2.11388582115    2.00000000000
    -21.13885821154   14.79720074808   -2.11388582115   -2.00000000000
    -14.79720074808   21.13885821154   -2.11388582115   -2.00000000000
     14.79720074808   21.13885821154   -2.11388582115   -2.00000000000
     21.13885821154   14.79720074808   -2.11388582115   -2.00000000000
     21.13885821154  -14.79720074808   -2.11388582115   -2.00000000000
     14.79720074808  -21.13885821154   -2.11388582115   -2.00000000000
    -14.79720074808  -21.13885821154   -2.11388582115   -2.00000000000
    -21.13885821154  -14.79720074808   -2.11388582115   -2.00000000000
    -25.36662985384    6.34165746346    0.00000000000    2.00000000000
     -6.34165746346   25.36662985384    0.00000000000    2.00000000000
      6.34165746346   25.36662985384    0.00000000000    2.00000000000
     25.36662985384    6.34165746346    0.00000000000    2.00000000000
     25.36662985384   -6.34165746346    0.00000000000    2.00000000000
      6.34165746346  -25.36662985384    0.00000000000    2.00000000000
     -6.34165746346  -25.36662985384    0.00000000000    2.00000000000
[...]
 Number of atoms for local DF:   40
 Number of fitting functions:  5360  (43.32%)
 Warning: drop high-lying PAOs                    16
 Number of occupied orbitals:    53
 Number of virtual  orbitals:  1972
 Number of Cholesky vectors:      7
 MP2 energy in ED [au]:          -0.070897540326
 CPU time [min]:107270.344                   Wall time [min]:  3516.227
 
 MO:   307
 Number of atoms in domain:      91
 Number of atomic orbitals:    4971
 Number of atoms for local DF:   64
 Number of fitting functions:  9802  (71.84%)
 Warning: drop high-lying PAOs                    27
 Number of occupied orbitals:    79
 Number of virtual  orbitals:  3354
 Number of Cholesky vectors:      9
 MP2 energy in ED [au]:          -0.072473314202
 CPU time [min]:107728.213                   Wall time [min]:  3531.197
 
 MO:   308
 Number of atoms in domain:      89
 Number of atomic orbitals:    4879
 Number of atoms for local DF:   62
 Number of fitting functions:  9590  (71.40%)
 Warning: drop high-lying PAOs                    27
 Number of occupied orbitals:    89
 Number of virtual  orbitals:  3266
 Number of Cholesky vectors:      9
 MP2 energy in ED [au]:          -0.073871199801
 CPU time [min]:108219.818                   Wall time [min]:  3547.390
 
 MO:   309
 Number of atoms in domain:      80
 Number of atomic orbitals:    4426
 Number of atoms for local DF:   40
 Number of fitting functions:  5360  (43.69%)
 Warning: drop high-lying PAOs                    16
 Number of occupied orbitals:    53
 Number of virtual  orbitals:  1972
 Number of Cholesky vectors:      7
 MP2 energy in ED [au]:          -0.070921786284
 CPU time [min]:108349.205                   Wall time [min]:  3551.752
 
 MO:   310
 Number of atoms in domain:      84
 Number of atomic orbitals:    4623
 Number of atoms for local DF:   50
 Number of fitting functions:  7686  (60.23%)
 Warning: drop high-lying PAOs                    22
 Number of occupied orbitals:    55
 Number of virtual  orbitals:  2658
 Number of Cholesky vectors:      9
 MP2 energy in ED [au]:          -0.070897920359
 CPU time [min]:108576.079                   Wall time [min]:  3559.385
 
 MO:   311
 Number of atoms in domain:      87
 Number of atomic orbitals:    4774
 Number of atoms for local DF:   53
 Number of fitting functions:  8144  (61.93%)
 Warning: drop high-lying PAOs                    24
 Number of occupied orbitals:    82
 Number of virtual  orbitals:  2803
 Number of Cholesky vectors:      9
 MP2 energy in ED [au]:          -0.073686015632
 CPU time [min]:108917.050                   Wall time [min]:  3571.000
 
 MO:   312
 Number of atoms in domain:      85
 Number of atomic orbitals:    4682
 Number of atoms for local DF:   49
 Number of fitting functions:  7580  (58.59%)
 Warning: drop high-lying PAOs                    22
 Number of occupied orbitals:    65
 Number of virtual  orbitals:  2612
 Number of Cholesky vectors:      9
 MP2 energy in ED [au]:          -0.071507899416
 CPU time [min]:109167.002                   Wall time [min]:  3579.632
 
 MO:   313
 Number of atoms in domain:      87
 Number of atomic orbitals:    4774
 Number of atoms for local DF:   56
 Number of fitting functions:  8462  (64.35%)
 Warning: drop high-lying PAOs                    24
 Number of occupied orbitals:    84
 Number of virtual  orbitals:  2932
 Number of Cholesky vectors:      9
 MP2 energy in ED [au]:          -0.073888189805
 CPU time [min]:109556.421                   Wall time [min]:  3592.420
 
 MO:   314
 Number of atoms in domain:      89
 Number of atomic orbitals:    4866
 Number of atoms for local DF:   59
 Number of fitting functions:  8920  (66.76%)
 Warning: drop high-lying PAOs                    26
 Number of occupied orbitals:    89
 Number of virtual  orbitals:  3082
 Number of Cholesky vectors:      9
 MP2 energy in ED [au]:          -0.074475156922
 CPU time [min]:109994.371                   Wall time [min]:  3606.908
 
 MO:   315
 Number of atoms in domain:      89
 Number of atomic orbitals:    4879
 Number of atoms for local DF:   60
 Number of fitting functions:  8956  (66.68%)
 Warning: drop high-lying PAOs                    25
 Number of occupied orbitals:    85
 Number of virtual  orbitals:  3106
 Number of Cholesky vectors:      9
 MP2 energy in ED [au]:          -0.072506019707
 CPU time [min]:110441.397                   Wall time [min]:  3621.507
 
 MO:   316
 Number of atoms in domain:      85
 Number of atomic orbitals:    4669
 Number of atoms for local DF:   46
 Number of fitting functions:  7192  (55.89%)
 Warning: drop high-lying PAOs                    21
 Number of occupied orbitals:    50
 Number of virtual  orbitals:  2473
 Number of Cholesky vectors:      9
 MP2 energy in ED [au]:          -0.070703502774
 CPU time [min]:110638.358                   Wall time [min]:  3628.105
 
 MO:   317
 Number of atoms in domain:      87
 Number of atomic orbitals:    4774
 Number of atoms for local DF:   55
 Number of fitting functions:  8356  (63.54%)
 Warning: drop high-lying PAOs                    24
 Number of occupied orbitals:    80
 Number of virtual  orbitals:  2889
 Number of Cholesky vectors:      9
 MP2 energy in ED [au]:          -0.072449541203
 CPU time [min]:110982.944                   Wall time [min]:  3639.706
 
 MO:   318
 Number of atoms in domain:      89
 Number of atomic orbitals:    4879
 Number of atoms for local DF:   58
 Number of fitting functions:  7618  (56.72%)
 Warning: drop high-lying PAOs                    21
 Number of occupied orbitals:    85
 Number of virtual  orbitals:  2808
 Number of Cholesky vectors:      7
 MP2 energy in ED [au]:          -0.072549789888
 CPU time [min]:111295.681                   Wall time [min]:  3650.557
 
 MO:   319
 Number of atoms in domain:      89
 Number of atomic orbitals:    4866
 Number of atoms for local DF:   59
 Number of fitting functions:  8920  (66.76%)
 Warning: drop high-lying PAOs                    26
 Number of occupied orbitals:    89
 Number of virtual  orbitals:  3082
 Number of Cholesky vectors:      9
 MP2 energy in ED [au]:          -0.074474976127
 CPU time [min]:111735.165                   Wall time [min]:  3665.090
 
 MO:   320
 Number of atoms in domain:      87
 Number of atomic orbitals:    4787
 Number of atoms for local DF:   55
 Number of fitting functions:  8286  (62.68%)
 Warning: drop high-lying PAOs                    23
 Number of occupied orbitals:    72
 Number of virtual  orbitals:  2876
 Number of Cholesky vectors:      9
 MP2 energy in ED [au]:          -0.072883564970
 CPU time [min]:112046.163                   Wall time [min]:  3675.772
 
 MO:   321
 Number of atoms in domain:      84
 Number of atomic orbitals:    4623
 Number of atoms for local DF:   44
 Number of fitting functions:  6910  (54.15%)
 Warning: drop high-lying PAOs                    20
 Number of occupied orbitals:    50
 Number of virtual  orbitals:  2375
 Number of Cholesky vectors:      9
 MP2 energy in ED [au]:          -0.070703190929
 CPU time [min]:112225.993                   Wall time [min]:  3681.837
 
 MO:   322
 Number of atoms in domain:      95
 Number of atomic orbitals:    5155
 Number of atoms for local DF:   83
 Number of fitting functions: 12446  (88.47%)
 Warning: drop high-lying PAOs                    36
 Number of occupied orbitals:   150
 Number of virtual  orbitals:  4206
 Number of Cholesky vectors:      9
 MP2 energy in ED [au]:          -0.077221852603
 CPU time [min]:113413.510                   Wall time [min]:  3723.760
 
 MO:   323
 Number of atoms in domain:      84
 Number of atomic orbitals:    4623
 Number of atoms for local DF:   50
 Number of fitting functions:  7686  (60.23%)
 Warning: drop high-lying PAOs                    22
 Number of occupied orbitals:    55
 Number of virtual  orbitals:  2658
 Number of Cholesky vectors:      9
 MP2 energy in ED [au]:          -0.070897869286
 CPU time [min]:113634.104                   Wall time [min]:  3731.215
 
 MO:   324
 Number of atoms in domain:      89
 Number of atomic orbitals:    4879
 Number of atoms for local DF:   62
 Number of fitting functions:  9590  (71.40%)
 Warning: drop high-lying PAOs                    27
 Number of occupied orbitals:    90
 Number of virtual  orbitals:  3266
 Number of Cholesky vectors:      9
 MP2 energy in ED [au]:          -0.074284932466
 CPU time [min]:114126.450                   Wall time [min]:  3747.462
 
 MO:   325
 Number of atoms in domain:      85
 Number of atomic orbitals:    4656
 Number of atoms for local DF:   47
 Number of fitting functions:  6382  (49.87%)
 Warning: drop high-lying PAOs                    20
 Number of occupied orbitals:    81
 Number of virtual  orbitals:  2320
 Number of Cholesky vectors:      8
 MP2 energy in ED [au]:          -0.074205405488
 CPU time [min]:114346.005                   Wall time [min]:  3755.392
 
 MO:   326
 Number of atoms in domain:      89
 Number of atomic orbitals:    4879
 Number of atoms for local DF:   60
 Number of fitting functions:  8956  (66.68%)
 Warning: drop high-lying PAOs                    25
 Number of occupied orbitals:    86
 Number of virtual  orbitals:  3106
 Number of Cholesky vectors:      9
 MP2 energy in ED [au]:          -0.072506895567
 CPU time [min]:114799.816                   Wall time [min]:  3770.226
 
 MO:   327
 Number of atoms in domain:      89
 Number of atomic orbitals:    4866
 Number of atoms for local DF:   52
 Number of fitting functions:  8038  (60.16%)
 Warning: drop high-lying PAOs                    24
 Number of occupied orbitals:    81
 Number of virtual  orbitals:  2765
 Number of Cholesky vectors:      9
 MP2 energy in ED [au]:          -0.074215288338
 CPU time [min]:115137.091                   Wall time [min]:  3781.833
 
 MO:   328
 Number of atoms in domain:      89
 Number of atomic orbitals:    4879
 Number of atoms for local DF:   58
 Number of fitting functions:  7618  (56.72%)
 Warning: drop high-lying PAOs                    21
 Number of occupied orbitals:    87
 Number of virtual  orbitals:  2808
 Number of Cholesky vectors:      7
 MP2 energy in ED [au]:          -0.073826935094
 CPU time [min]:115449.437                   Wall time [min]:  3792.668
 
 MO:   329
 Number of atoms in domain:      89
 Number of atomic orbitals:    4879
 Number of atoms for local DF:   59
 Number of fitting functions:  8850  (65.89%)
 Warning: drop high-lying PAOs                    25
 Number of occupied orbitals:    90
 Number of virtual  orbitals:  3064
 Number of Cholesky vectors:      9
 MP2 energy in ED [au]:          -0.074374741781
 CPU time [min]:115908.837                   Wall time [min]:  3807.768
 
 MO:   330
 Number of atoms in domain:      93
 Number of atomic orbitals:    5063
 Number of atoms for local DF:   64
 Number of fitting functions: 10012  (72.26%)
 Warning: drop high-lying PAOs                    30
 Number of occupied orbitals:    99
 Number of virtual  orbitals:  3389
 Number of Cholesky vectors:      9
 MP2 energy in ED [au]:          -0.074647761987
 CPU time [min]:116504.231                   Wall time [min]:  3827.623
 
 MO:   331
 Number of atoms in domain:      93
 Number of atomic orbitals:    5063
 Number of atoms for local DF:   65
 Number of fitting functions: 10188  (73.53%)
 Warning: drop high-lying PAOs                    31
 Number of occupied orbitals:    98
 Number of virtual  orbitals:  3440
 Number of Cholesky vectors:      9
 MP2 energy in ED [au]:          -0.074563389008
 CPU time [min]:117103.387                   Wall time [min]:  3847.621
 
 MO:   332
 Number of atoms in domain:      95
 Number of atomic orbitals:    5155
 Number of atoms for local DF:   83
 Number of fitting functions: 12446  (88.47%)
 Warning: drop high-lying PAOs                    36
 Number of occupied orbitals:   146
 Number of virtual  orbitals:  4206
 Number of Cholesky vectors:      9
 MP2 energy in ED [au]:          -0.077217487774
 CPU time [min]:118221.140                   Wall time [min]:  3887.336
 
 MO:   333
 Number of atoms in domain:      85
 Number of atomic orbitals:    4656
 Number of atoms for local DF:   47
 Number of fitting functions:  6382  (49.87%)
 Warning: drop high-lying PAOs                    20
 Number of occupied orbitals:    81
 Number of virtual  orbitals:  2320
 Number of Cholesky vectors:      8
 MP2 energy in ED [au]:          -0.074205134867
 CPU time [min]:118441.493                   Wall time [min]:  3895.286
 
 MO:   334
 Number of atoms in domain:      89
 Number of atomic orbitals:    4866
 Number of atoms for local DF:   56
 Number of fitting functions:  8602  (64.38%)
 Warning: drop high-lying PAOs                    26
 Number of occupied orbitals:    89
 Number of virtual  orbitals:  2953
 Number of Cholesky vectors:      9
 MP2 energy in ED [au]:          -0.074958489198
 CPU time [min]:118866.154                   Wall time [min]:  3909.327
 
 MO:   335
 Number of atoms in domain:      91
 Number of atomic orbitals:    4971
 Number of atoms for local DF:   57
 Number of fitting functions:  9060  (66.40%)
 Warning: drop high-lying PAOs                    27
 Number of occupied orbitals:    82
 Number of virtual  orbitals:  3064
 Number of Cholesky vectors:      9
 MP2 energy in ED [au]:          -0.074222112815
 CPU time [min]:119293.173                   Wall time [min]:  3923.391
 
 MO:   336
 Number of atoms in domain:      86
 Number of atomic orbitals:    4715
 Number of atoms for local DF:   52
 Number of fitting functions:  7968  (61.42%)
 Warning: drop high-lying PAOs                    23
 Number of occupied orbitals:    78
 Number of virtual  orbitals:  2754
 Number of Cholesky vectors:      9
 MP2 energy in ED [au]:          -0.073761989546
 CPU time [min]:119617.492                   Wall time [min]:  3934.537
 
 MO:   337
 Number of atoms in domain:      89
 Number of atomic orbitals:    4866
 Number of atoms for local DF:   56
 Number of fitting functions:  8602  (64.38%)
 Warning: drop high-lying PAOs                    26
 Number of occupied orbitals:    89
 Number of virtual  orbitals:  2953
 Number of Cholesky vectors:      9
 MP2 energy in ED [au]:          -0.074958521038
 CPU time [min]:120043.544                   Wall time [min]:  3948.616
 
 MO:   338
 Number of atoms in domain:      95
 Number of atomic orbitals:    5155
 Number of atoms for local DF:   83
 Number of fitting functions: 12446  (88.47%)
 Warning: drop high-lying PAOs                    36
 Number of occupied orbitals:   148
 Number of virtual  orbitals:  4206
 Number of Cholesky vectors:      9
 MP2 energy in ED [au]:          -0.080098203724
 CPU time [min]:121192.379                   Wall time [min]:  3989.339
 
 MO:   339
 Number of atoms in domain:      91
 Number of atomic orbitals:    4971
 Number of atoms for local DF:   57
 Number of fitting functions:  9060  (66.40%)
 Warning: drop high-lying PAOs                    27
 Number of occupied orbitals:    82
 Number of virtual  orbitals:  3064
 Number of Cholesky vectors:      9
 MP2 energy in ED [au]:          -0.074222000154
 CPU time [min]:121613.569                   Wall time [min]:  4003.241
 
 MO:   340
 Number of atoms in domain:      89
 Number of atomic orbitals:    4879
 Number of atoms for local DF:   59
 Number of fitting functions:  8850  (65.89%)
 Warning: drop high-lying PAOs                    25
 Number of occupied orbitals:    90
 Number of virtual  orbitals:  3064
 Number of Cholesky vectors:      9
 MP2 energy in ED [au]:          -0.074374764873
 CPU time [min]:122069.269                   Wall time [min]:  4018.243
 
 MO:   341
 Number of atoms in domain:      89
 Number of atomic orbitals:    4866
 Number of atoms for local DF:   52
 Number of fitting functions:  8038  (60.16%)
 Warning: drop high-lying PAOs                    24
 Number of occupied orbitals:    81
 Number of virtual  orbitals:  2765
 Number of Cholesky vectors:      9
 MP2 energy in ED [au]:          -0.074215322927
 CPU time [min]:122406.941                   Wall time [min]:  4029.866
 
 MO:   342
 Number of atoms in domain:      92
 Number of atomic orbitals:    5017
 Number of atoms for local DF:   69
 Number of fitting functions: 10682  (77.69%)
 Warning: drop high-lying PAOs                    32
 Number of occupied orbitals:   135
 Number of virtual  orbitals:  3621
 Number of Cholesky vectors:      9
 MP2 energy in ED [au]:          -0.075767030852
 CPU time [min]:123242.785                   Wall time [min]:  4058.454
 
 MO:   343
 Number of atoms in domain:      97
 Number of atomic orbitals:    5247
 Number of atoms for local DF:   81
 Number of fitting functions: 12304  (86.16%)
 Warning: drop high-lying PAOs                    37
 Number of occupied orbitals:   118
 Number of virtual  orbitals:  4149
 Number of Cholesky vectors:      9
 MP2 energy in ED [au]:          -0.075409708941
 CPU time [min]:124157.325                   Wall time [min]:  4090.160
 
 MO:   344
 Number of atoms in domain:      98
 Number of atomic orbitals:    5293
 Number of atoms for local DF:   82
 Number of fitting functions: 12690  (88.21%)
 Warning: drop high-lying PAOs                    41
 Number of occupied orbitals:   108
 Number of virtual  orbitals:  4254
 Number of Cholesky vectors:      9
 MP2 energy in ED [au]:          -0.075413050313
 CPU time [min]:125033.476                   Wall time [min]:  4120.002
 
 MO:   345
 Number of atoms in domain:      98
 Number of atomic orbitals:    5293
 Number of atoms for local DF:   82
 Number of fitting functions: 12690  (88.21%)
 Warning: drop high-lying PAOs                    41
 Number of occupied orbitals:   109
 Number of virtual  orbitals:  4254
 Number of Cholesky vectors:      9
 MP2 energy in ED [au]:          -0.075414618115
 CPU time [min]:125934.374                   Wall time [min]:  4150.708
 
 MO:   346
 Number of atoms in domain:      93
 Number of atomic orbitals:    5063
 Number of atoms for local DF:   64
 Number of fitting functions: 10012  (72.26%)
 Warning: drop high-lying PAOs                    30
 Number of occupied orbitals:   102
 Number of virtual  orbitals:  3389
 Number of Cholesky vectors:      9
 MP2 energy in ED [au]:          -0.075209543749
 CPU time [min]:126527.945                   Wall time [min]:  4170.665
 
 MO:   347
 Number of atoms in domain:      95
 Number of atomic orbitals:    5155
 Number of atoms for local DF:   82
 Number of fitting functions: 12340  (87.72%)
 Warning: drop high-lying PAOs                    36
 Number of occupied orbitals:   127
 Number of virtual  orbitals:  4174
 Number of Cholesky vectors:      9
 MP2 energy in ED [au]:          -0.079337474252
 CPU time [min]:127506.877                   Wall time [min]:  4205.185
 
 MO:   348
 Number of atoms in domain:      87
 Number of atomic orbitals:    4774
 Number of atoms for local DF:   55
 Number of fitting functions:  8356  (63.54%)
 Warning: drop high-lying PAOs                    24
 Number of occupied orbitals:    80
 Number of virtual  orbitals:  2889
 Number of Cholesky vectors:      9
 MP2 energy in ED [au]:          -0.072449550955
 CPU time [min]:127868.834                   Wall time [min]:  4217.274
 
 MO:   349
 Number of atoms in domain:      87
 Number of atomic orbitals:    4774
 Number of atoms for local DF:   54
 Number of fitting functions:  8250  (62.74%)
 Warning: drop high-lying PAOs                    24
 Number of occupied orbitals:    82
 Number of virtual  orbitals:  2845
 Number of Cholesky vectors:      9
 MP2 energy in ED [au]:          -0.074307925092
 CPU time [min]:128225.539                   Wall time [min]:  4229.264
 
 MO:   350
 Number of atoms in domain:      98
 Number of atomic orbitals:    5293
 Number of atoms for local DF:   98
 Number of fitting functions: 14386 (100.00%)
 Warning: drop high-lying PAOs                    41
 Number of occupied orbitals:   138
 Number of virtual  orbitals:  4741
 Number of Cholesky vectors:      9
