 vasp.6.4.0 14Feb23 (build Dec 05 2023 14:15:48) complex                        
  
 executed on             LinuxIFC date 2023.12.12  10:04:10
 running  512 mpi-ranks, with    1 threads/rank, on   32 nodes
 distrk:  each k-point on  512 cores,    1 groups
 distr:  one band on NCORE=  16 cores,   32 groups


--------------------------------------------------------------------------------------------------------


 INCAR:
   SYSTEM = MgO-rocksalt
   ISMEAR = 0
   SIGMA = 0.05
   EDIFF = 1E-6
   ALGO = ALL
   ISTART = 2
   IBRION = -1
   NSW = 0
   ISYM = 0
   METAGGA = M06L
   ENCUT = 520
   PREC = Accurate
   LASPH = .TRUE.
   LREAL = Auto
   ISPIN = 1
   NELM = 2000
   NELMIN = 8
   NCORE = 16
   LWAVE = .FALSE.
   LCHARG = .FALSE.

 POTCAR:    PAW_PBE Au 04Oct2007                  
 POTCAR:    PAW_PBE Au 04Oct2007                  
   SHA256 =  d0044ae04e2bdce24051b198fc5c053d722a5bc6fe3c3b100514a13fc5d2db88 Au/POTCAR             
   COPYR  = (c) Copyright 04Oct2007 Georg Kresse                                                    
   COPYR  = This file is part of the software VASP. Any use, copying, and all other rights are regul
   COPYR  = If you do not have a valid VASP license, you may not use, copy or distribute this file. 
   VRHFIN =Au: s1d10                                                                                
   LEXCH  = PE                                                                                      
   EATOM  =   926.0867 eV,   68.0654 Ry                                                             
                                                                                                    
   TITEL  = PAW_PBE Au 04Oct2007                                                                    
   LULTRA =        F    use ultrasoft PP ?                                                          
   IUNSCR =        1    unscreen: 0-lin 1-nonlin 2-no                                               
   RPACOR =    2.330    partial core radius                                                         
   POMASS =  196.966; ZVAL   =   11.000    mass and valenz                                          
   RCORE  =    2.500    outmost cutoff radius                                                       
   RWIGS  =    2.840; RWIGS  =    1.503    wigner-seitz radius (au A)                               
   ENMAX  =  229.943; ENMIN  =  172.457 eV                                                          
   ICORE  =        3    local potential                                                             
   LCOR   =        T    correct aug charges                                                         
   LPAW   =        T    paw PP                                                                      
   EAUG   =  356.670                                                                                
   DEXC   =    0.000                                                                                
   RMAX   =    2.562    core radius for proj-oper                                                   
   RAUG   =    1.300    factor for augmentation sphere                                              
   RDEP   =    2.598    radius for radial grids                                                     
   RDEPT  =    2.193    core radius for aug-charge                                                  
                                                                                                    
   Atomic configuration                                                                             
   16 entries                                                                                       
     n  l   j            E        occ.                                                              
     1  0  0.50    -80748.5001   2.0000                                                             
     2  0  0.50    -14244.7466   2.0000                                                             
     2  1  1.50    -12310.9591   6.0000                                                             
     3  0  0.50     -3362.1768   2.0000                                                             
     3  1  1.50     -2801.5463   6.0000                                                             
     3  2  2.50     -2203.8206  10.0000                                                             
     4  0  0.50      -729.8168   2.0000                                                             
     4  1  1.50      -546.0527   6.0000                                                             
     4  2  2.50      -325.7302  10.0000                                                             
     4  3  3.50       -81.1472  14.0000                                                             
     5  0  0.50      -108.3201   2.0000                                                             
     5  1  1.50       -59.7479   6.0000                                                             
     5  2  2.50        -6.8783  10.0000                                                             
     6  0  0.50        -5.7602   1.0000                                                             
     6  1  1.50        -6.8029   0.0000                                                             
     5  3  2.50        -1.3606   0.0000                                                             
   Description                                                                                      
     l       E           TYP  RCUT    TYP  RCUT                                                     
     2     -6.8782861     23  2.500                                                                 
     2     -8.2388687     23  2.500                                                                 
     0     -5.7601759     23  2.500                                                                 
     0     -0.8493231     23  2.500                                                                 
     1     -2.7211652     23  2.500                                                                 
     1     27.2116520     23  2.500                                                                 
     3     -1.3605826     23  2.500                                                                 
  local pseudopotential read in
  partial core-charges read in
  partial kinetic energy density read in
  atomic valenz-charges read in
  non local Contribution for L=           2  read in
    real space projection operators read in
  non local Contribution for L=           2  read in
    real space projection operators read in
  non local Contribution for L=           0  read in
    real space projection operators read in
  non local Contribution for L=           0  read in
    real space projection operators read in
  non local Contribution for L=           1  read in
    real space projection operators read in
  non local Contribution for L=           1  read in
    real space projection operators read in
    PAW grid and wavefunctions read in
 
   number of l-projection  operators is LMAX  =           6
   number of lm-projection operators is LMMAX =          18
 
 -----------------------------------------------------------------------------
|                                                                             |
|               ----> ADVICE to this user running VASP <----                  |
|                                                                             |
|     You have a (more or less) 'small supercell' and for smaller cells       |
|     it is recommended to use the reciprocal-space projection scheme!        |
|     The real-space optimization is not efficient for small cells and it     |
|     is also less accurate ...                                               |
|     Therefore, set LREAL=.FALSE. in the INCAR file.                         |
|                                                                             |
 -----------------------------------------------------------------------------

 Optimization of the real space projectors (new method)

 maximal supplied QI-value         = 15.12
 optimisation between [QCUT,QGAM] = [ 11.64, 23.28] = [ 37.95,151.78] Ry 
 Optimized for a Real-space Cutoff    1.49 Angstroem

   l    n(q)    QCUT    max X(q) W(low)/X(q) W(high)/X(q)  e(spline) 
   2      9    11.641    60.898    0.24E-03    0.10E-03    0.19E-06
   2      9    11.641    58.894    0.25E-03    0.10E-03    0.19E-06
   0     10    11.641   109.617    0.73E-04    0.33E-04    0.11E-06
   0     10    11.641    75.026    0.71E-04    0.32E-04    0.11E-06
   1     10    11.641    16.344    0.27E-04    0.97E-04    0.16E-06
   1     10    11.641    10.160    0.23E-04    0.77E-04    0.13E-06
  PAW_PBE Au 04Oct2007                  :
 energy of atom  1       EATOM= -926.0867
 kinetic energy error for atom=    0.0034 (will be added to EATOM!!)
 
 
 POSCAR: Au
  positions in direct lattice
  No initial velocities read in

 METAGGA = M06L                                        LMAXTAU =  6    LMIXTAU =  F

 exchange correlation table for  LEXCH =        8
   RHO(1)=    0.500       N(1)  =     2000
   RHO(2)=  100.500       N(2)  =     4000
 


--------------------------------------------------------------------------------------------------------


 ion  position               nearest neighbor table
   1  0.560  0.500  0.629-   2 2.54
   2  0.440  0.500  0.629-   1 2.54
 

IMPORTANT INFORMATION: All symmetrisations will be switched off!
NOSYMM: (Re-)initialisation of all symmetry stuff for point group C_1.


----------------------------------------------------------------------------------------

                                     Primitive cell                                     

  volume of cell :    9881.6133

  direct lattice vectors                    reciprocal lattice vectors
    21.138852197  0.000000000  0.000000000     0.047306258  0.000000000  0.000000000
     0.000000000 21.138852197  0.000000000     0.000000000  0.047306258  0.000000000
     0.000000000  0.000000000 22.113885220     0.000000000  0.000000000  0.045220457

  length of vectors
    21.138852197 21.138852197 22.113885220     0.047306258  0.047306258  0.045220457

  position of ions in fractional coordinates (direct lattice)
     0.560001958  0.500000000  0.629184642
     0.439998042  0.500000000  0.629184642

  ion indices of the primitive-cell ions
   primitive index   ion index
                 1           1
                 2           2

----------------------------------------------------------------------------------------

 
 
 KPOINTS: KPOINTS created by Atomic Simulation Env

Automatic generation of k-mesh.
 Grid dimensions read from file:
 generate k-points for:    1    1    1

 Generating k-lattice:

  Cartesian coordinates                     Fractional coordinates (reciprocal lattice)
     0.047306258  0.000000000  0.000000000     1.000000000  0.000000000  0.000000000
     0.000000000  0.047306258  0.000000000     0.000000000  1.000000000  0.000000000
     0.000000000  0.000000000  0.045220457     0.000000000  0.000000000  1.000000000

  Length of vectors
     0.047306258  0.047306258  0.045220457

  Shift w.r.t. Gamma in fractional coordinates (k-lattice)
     0.000000000  0.000000000  0.000000000

 
 Subroutine IBZKPT returns following result:
 ===========================================
 
 Found      1 irreducible k-points:
 
 Following reciprocal coordinates:
            Coordinates               Weight
  0.000000  0.000000  0.000000      1.000000
 
 Following cartesian coordinates:
            Coordinates               Weight
  0.000000  0.000000  0.000000      1.000000
 


--------------------------------------------------------------------------------------------------------




 Dimension of arrays:
   k-points           NKPTS =      1   k-points in BZ     NKDIM =      1   number of bands    NBANDS=     32
   number of dos      NEDOS =    301   number of ions     NIONS =      2
   non local maximal  LDIM  =      6   non local SUM 2l+1 LMDIM =     18
   total plane-waves  NPLWV = ******
   max r-space proj   IRMAX =   6070   max aug-charges    IRDMAX=  26812
   dimension x,y,z NGX =   160 NGY =  160 NGZ =  168
   dimension x,y,z NGXF=   320 NGYF=  320 NGZF=  336
   support grid    NGXF=   320 NGYF=  320 NGZF=  336
   ions per type =               2
   NGX,Y,Z   is equivalent  to a cutoff of  12.58, 12.58, 12.63 a.u.
   NGXF,Y,Z  is equivalent  to a cutoff of  25.17, 25.17, 25.26 a.u.

 SYSTEM =  MgO-rocksalt                            
 POSCAR =  Au                                      

 Startparameter for this run:
   NWRITE =      2    write-flag & timer
   PREC   = accura    normal or accurate (medium, high low for compatibility)
   ISTART =      2    job   : 0-new  1-cont  2-samecut
   ICHARG =      0    charge: 1-file 2-atom 10-const
   ISPIN  =      1    spin polarized calculation?
   LNONCOLLINEAR =      F non collinear calculations
   LSORBIT =      F    spin-orbit coupling
   INIWAV =      1    electr: 0-lowe 1-rand  2-diag
   LASPH  =      T    aspherical Exc in radial PAW
 Electronic Relaxation 1
   ENCUT  =  520.0 eV  38.22 Ry    6.18 a.u.  39.30 39.30 41.12*2*pi/ulx,y,z
   ENINI  =  520.0     initial cutoff
   ENAUG  =  356.7 eV  augmentation charge cutoff
   NELM   =   2000;   NELMIN=  8; NELMDL=  0     # of ELM steps 
   EDIFF  = 0.1E-05   stopping-criterion for ELM
   LREAL  =      T    real-space projection
   NLSPLINE    = F    spline interpolate recip. space projectors
   LCOMPAT=      F    compatible to vasp.4.4
   GGA_COMPAT  = T    GGA compatible to vasp.4.4-vasp.4.6
   LMAXPAW     = -100 max onsite density
   LMAXMIX     =    2 max onsite mixed and CHGCAR
   VOSKOWN=      0    Vosko Wilk Nusair interpolation
   ROPT   =   -0.00025
 Ionic relaxation
   EDIFFG = 0.1E-04   stopping-criterion for IOM
   NSW    =      0    number of steps for IOM
   NBLOCK =      1;   KBLOCK =      1    inner block; outer block 
   IBRION =     -1    ionic relax: 0-MD 1-quasi-New 2-CG
   NFREE  =      0    steps in history (QN), initial steepest desc. (CG)
   ISIF   =      2    stress and relaxation
   IWAVPR =     10    prediction:  0-non 1-charg 2-wave 3-comb
   ISYM   =      0    0-nonsym 1-usesym 2-fastsym
   LCORR  =      T    Harris-Foulkes like correction to forces

   POTIM  = 0.5000    time-step for ionic-motion
   TEIN   =    0.0    initial temperature
   TEBEG  =    0.0;   TEEND  =   0.0 temperature during run
   SMASS  =  -3.00    Nose mass-parameter (am)
   estimated Nose-frequenzy (Omega)   =  0.10E-29 period in steps = 0.13E+47 mass=  -0.102E-25a.u.
   SCALEE = 1.0000    scale energy and forces
   NPACO  =    256;   APACO  = 10.0  distance and # of slots for P.C.
   PSTRESS=    0.0 pullay stress

  Mass of Ions in am
   POMASS = 196.97
  Ionic Valenz
   ZVAL   =  11.00
  Atomic Wigner-Seitz radii
   RWIGS  =  -1.00
  virtual crystal weights 
   VCA    =   1.00
   NELECT =      22.0000    total number of electrons
   NUPDOWN=      -1.0000    fix difference up-down

 DOS related values:
   EMIN   =  10.00;   EMAX   =-10.00  energy-range for DOS
   EFERMI =   0.00;   METHOD = LEGACY      
   ISMEAR =     0;   SIGMA  =   0.05  broadening in eV -4-tet -1-fermi 0-gaus

 Electronic relaxation 2 (details)
   IALGO  =     58    algorithm
   LDIAG  =      T    sub-space diagonalisation (order eigenvalues)
   LSUBROT=      F    optimize rotation matrix (better conditioning)
   TURBO    =      0    0=normal 1=particle mesh
   IRESTART =      0    0=no restart 2=restart with 2 vectors
   NREBOOT  =      0    no. of reboots
   NMIN     =      0    reboot dimension
   EREF     =   0.00    reference energy to select bands
   IMIX   =      4    mixing-type and parameters
     AMIX     =   0.40;   BMIX     =  1.00
     AMIX_MAG =   1.60;   BMIX_MAG =  1.00
     AMIN     =   0.10
     WC   =   100.;   INIMIX=   1;  MIXPRE=   1;  MAXMIX= -45

 Intra band minimization:
   WEIMIN = 0.0000     energy-eigenvalue tresh-hold
   EBREAK =  0.78E-08  absolut break condition
   DEPER  =   0.30     relativ break condition  

   TIME   =   0.40     timestep for ELM

  volume/ion in A,a.u.               =    4940.81     33342.21
  Fermi-wavevector in a.u.,A,eV,Ry     =   0.213767  0.403960  0.621734  0.045696
  Thomas-Fermi vector in A             =   0.985879
 
 Write flags
   LWAVE        =      F    write WAVECAR
   LDOWNSAMPLE  =      F    k-point downsampling of WAVECAR
   LCHARG       =      F    write CHGCAR
   LVTOT        =      F    write LOCPOT, total local potential
   LVHAR        =      F    write LOCPOT, Hartree potential only
   LELF         =      F    write electronic localiz. function (ELF)
   LORBIT       =      0    0 simple, 1 ext, 2 COOP (PROOUT), +10 PAW based schemes


 Dipole corrections
   LMONO  =      F    monopole corrections only (constant potential shift)
   LDIPOL =      F    correct potential (dipole corrections)
   IDIPOL =      0    1-x, 2-y, 3-z, 4-all directions 
   EPSILON=  1.0000000 bulk dielectric constant

 Exchange correlation treatment:
   GGA     =    --    GGA type
   LEXCH   =     8    internal setting for exchange type
   LIBXC   =     F    Libxc                    
   VOSKOWN =     0    Vosko Wilk Nusair interpolation
   LHFCALC =     F    Hartree Fock is set to
   LHFONE  =     F    Hartree Fock one center treatment
   AEXX    =    0.0000 exact exchange contribution

 Linear response parameters
   LEPSILON=     F    determine dielectric tensor
   LRPA    =     F    only Hartree local field effects (RPA)
   LNABLA  =     F    use nabla operator in PAW spheres
   LVEL    =     F    velocity operator in full k-point grid
   CSHIFT  =0.1000    complex shift for real part using Kramers Kronig
   OMEGAMAX=  -1.0    maximum frequency
   DEG_THRESHOLD= 0.2000000E-02 threshold for treating states as degnerate
   RTIME   =   -0.100 relaxation time in fs
  (WPLASMAI=    0.000 imaginary part of plasma frequency in eV, 0.658/RTIME)
   DFIELD  = 0.0000000 0.0000000 0.0000000 field for delta impulse in time
 
  Optional k-point grid parameters
   LKPOINTS_OPT  =     F    use optional k-point grid
   KPOINTS_OPT_MODE=     1    mode for optional k-point grid
 
 Orbital magnetization related:
   ORBITALMAG=     F  switch on orbital magnetization
   LCHIMAG   =     F  perturbation theory with respect to B field
   DQ        =  0.001000  dq finite difference perturbation B field
   LLRAUG    =     F  two centre corrections for induced B field
   LBONE     =     F  B-component reconstruction in AE one-centre
   LVGVCALC  =     T  calculate vGv susceptibility
   LVGVAPPL  =     F  apply vGv susceptibility instead of pGv for G=0

 Random number generation:
   RANDOM_GENERATOR = DEFAULT
   PCG_SEED         = not used


--------------------------------------------------------------------------------------------------------


 Static calculation
 charge density and potential will be updated during run
 non-spin polarized calculation
 Conjugate gradient for all bands (Freysoldt, et al. PRB 79, 241103 (2009))
 preconditioned conjugated gradient                                        
 perform sub-space diagonalisation
    before iterative eigenvector-optimisation
 modified Broyden-mixing scheme, WC =      100.0
 initial mixing is a Kerker type mixing with AMIX =  0.4000 and BMIX =      1.0000
 Hartree-type preconditioning will be used
 using additional bands           21
 real space projection scheme for non local part
 use partial core corrections
 no Harris-corrections to forces 
 use gradient corrections 
 use of overlap-Matrix (Vanderbilt PP)
 Gauss-broadening in eV      SIGMA  =   0.05


--------------------------------------------------------------------------------------------------------


  energy-cutoff  :      520.00
  volume of cell :     9881.61
      direct lattice vectors                 reciprocal lattice vectors
    21.138852197  0.000000000  0.000000000     0.047306258  0.000000000  0.000000000
     0.000000000 21.138852197  0.000000000     0.000000000  0.047306258  0.000000000
     0.000000000  0.000000000 22.113885220     0.000000000  0.000000000  0.045220457

  length of vectors
    21.138852197 21.138852197 22.113885220     0.047306258  0.047306258  0.045220457


 
 old parameters found on file WAVECAR:
  energy-cutoff  :      520.00
  volume of cell :     9881.61
      direct lattice vectors                 reciprocal lattice vectors
    21.138852197  0.000000000  0.000000000     0.047306258  0.000000000  0.000000000
     0.000000000 21.138852197  0.000000000     0.000000000  0.047306258  0.000000000
     0.000000000  0.000000000 22.113885220     0.000000000  0.000000000  0.045220457

  length of vectors

 
 k-points in units of 2pi/SCALE and weight: KPOINTS created by Atomic Simulation Env
   0.00000000  0.00000000  0.00000000       1.000
 
 k-points in reciprocal lattice and weights: KPOINTS created by Atomic Simulation Env
   0.00000000  0.00000000  0.00000000       1.000
 
 position of ions in fractional coordinates (direct lattice) 
   0.56000196  0.50000000  0.62918464
   0.43999804  0.50000000  0.62918464
 
 position of ions in cartesian coordinates  (Angst):
  11.83779862 10.56942610 13.91371695
   9.30105358 10.56942610 13.91371695
 


--------------------------------------------------------------------------------------------------------


 k-point   1 :   0.0000 0.0000 0.0000  plane waves:  265979

 maximum and minimum number of plane-waves per node :     16635    16606

 maximum number of plane-waves:    265979
 maximum index in each direction: 
   IXMAX=   39   IYMAX=   39   IZMAX=   41
   IXMIN=  -39   IYMIN=  -39   IZMIN=  -41


 real space projection operators:
  total allocation   :       1647.00 KBytes
  max/ min on nodes  :        108.00         99.98


 parallel 3D FFT for wavefunctions:
    minimum data exchange during FFTs selected (reduces bandwidth)
 parallel 3D FFT for charge:
    minimum data exchange during FFTs selected (reduces bandwidth)


 total amount of memory used by VASP MPI-rank0    68052. kBytes
=======================================================================

   base      :      30000. kBytes
   nonlr-proj:        332. kBytes
   fftplans  :      11482. kBytes
   grid      :      25425. kBytes
   one-center:         15. kBytes
   wavefun   :        798. kBytes
 
     INWAV:  cpu time      1.4033: real time      1.4402
 Broyden mixing: mesh for mixing (old mesh)
   NGX = 79   NGY = 79   NGZ = 83
  (NGX  =320   NGY  =320   NGZ  =336)
  gives a total of 518003 points

 charge density for first step will be calculated from the start-wavefunctions


--------------------------------------------------------------------------------------------------------


 Maximum index for non-local projection operator          366
 Maximum index for augmentation-charges            0 (set IRDMAX)


--------------------------------------------------------------------------------------------------------


 initial charge from wavefunction
 First call to EWALD:  gamma=   0.083
 Maximum number of real-space cells 3x 3x 3
 Maximum number of reciprocal cells 3x 3x 3

    FEWALD:  cpu time      0.0073: real time      0.0073


--------------------------------------- Ionic step        1  -------------------------------------------




--------------------------------------- Iteration      1(   1)  ---------------------------------------


    POTLOK:  cpu time      0.6484: real time      0.6482
    SETDIJ:  cpu time      4.3585: real time      4.3616
    TRIAL :  cpu time      0.4426: real time      0.4437
    CORREC:  cpu time      5.3813: real time      5.3839
    CHARGE:  cpu time      0.1189: real time      0.1186
    --------------------------------------------
      LOOP:  cpu time     10.9516: real time     10.9585

 eigenvalue-minimisations  :     0
 total energy-change (2. order) :-0.7923821E+02  (-0.2052355E+00)
 number of electron      22.0000003 magnetization 
 augmentation part        8.3059004 magnetization 

 Free energy of the ion-electron system (eV)
  ---------------------------------------------------
  alpha Z        PSCENC =         0.47150036
  Ewald energy   TEWEN  =       229.00846249
  -Hartree energ DENC   =     -2002.85464215
  -exchange      EXHF   =         0.00000000
  -V(xc)+E(xc)   XCENC  =        52.53765425
  PAW double counting   =      1838.86087003    -1891.42135960
  entropy T*S    EENTRO =        -0.00000000
  eigenvalues    EBANDS =      -158.00734207
  atomic energy  EATOM  =      1852.16664478
  ---------------------------------------------------
  free energy    TOTEN  =       -79.23821192 eV

  energy without entropy =      -79.23821192  energy(sigma->0) =      -79.23821192


--------------------------------------------------------------------------------------------------------




--------------------------------------- Iteration      1(   2)  ---------------------------------------


    POTLOK:  cpu time      0.7605: real time      0.7606
    SETDIJ:  cpu time      4.7732: real time      4.7762
    TRIAL :  cpu time      0.3755: real time      0.3754
    CORREC:  cpu time      5.7878: real time      5.7914
    CHARGE:  cpu time      0.1187: real time      0.1187
    --------------------------------------------
      LOOP:  cpu time     11.8201: real time     11.8337

 eigenvalue-minimisations  :     0
 total energy-change (2. order) :-0.2051787E+00  (-0.6212681E-01)
 number of electron      22.0000003 magnetization 
 augmentation part        8.2937071 magnetization 

 Free energy of the ion-electron system (eV)
  ---------------------------------------------------
  alpha Z        PSCENC =         0.47150036
  Ewald energy   TEWEN  =       229.00846249
  -Hartree energ DENC   =     -2016.53269270
  -exchange      EXHF   =         0.00000000
  -V(xc)+E(xc)   XCENC  =        53.02578958
  PAW double counting   =      1933.06348305    -1985.20347273
  entropy T*S    EENTRO =        -0.00000000
  eigenvalues    EBANDS =      -145.44310541
  atomic energy  EATOM  =      1852.16664478
  ---------------------------------------------------
  free energy    TOTEN  =       -79.44339058 eV

  energy without entropy =      -79.44339058  energy(sigma->0) =      -79.44339058


--------------------------------------------------------------------------------------------------------




--------------------------------------- Iteration      1(   3)  ---------------------------------------


    POTLOK:  cpu time      0.7268: real time      0.7272
    SETDIJ:  cpu time      4.7629: real time      4.7657
    TRIAL :  cpu time      0.3680: real time      0.3678
    CORREC:  cpu time      5.7521: real time      5.7556
    CHARGE:  cpu time      0.1172: real time      0.1171
    --------------------------------------------
      LOOP:  cpu time     11.7310: real time     11.7462

 eigenvalue-minimisations  :     0
 total energy-change (2. order) :-0.6274118E-01  (-0.1018777E-01)
 number of electron      22.0000003 magnetization 
 augmentation part        8.2978159 magnetization 

 Free energy of the ion-electron system (eV)
  ---------------------------------------------------
  alpha Z        PSCENC =         0.47150036
  Ewald energy   TEWEN  =       229.00846249
  -Hartree energ DENC   =     -2009.48218161
  -exchange      EXHF   =         0.00000000
  -V(xc)+E(xc)   XCENC  =        52.69949216
  PAW double counting   =      1992.85779213    -2045.10364121
  entropy T*S    EENTRO =        -0.00000000
  eigenvalues    EBANDS =      -152.12420087
  atomic energy  EATOM  =      1852.16664478
  ---------------------------------------------------
  free energy    TOTEN  =       -79.50613176 eV

  energy without entropy =      -79.50613176  energy(sigma->0) =      -79.50613176


--------------------------------------------------------------------------------------------------------




--------------------------------------- Iteration      1(   4)  ---------------------------------------


    POTLOK:  cpu time      0.7029: real time      0.7032
    SETDIJ:  cpu time      4.7770: real time      4.7799
    TRIAL :  cpu time      0.3654: real time      0.3660
    CORREC:  cpu time      5.7957: real time      5.7974
    CHARGE:  cpu time      0.1185: real time      0.1184
    --------------------------------------------
      LOOP:  cpu time     11.7632: real time     11.7762

 eigenvalue-minimisations  :     0
 total energy-change (2. order) :-0.9017582E-02  (-0.5999898E-02)
 number of electron      22.0000003 magnetization 
 augmentation part        8.3053492 magnetization 

 Free energy of the ion-electron system (eV)
  ---------------------------------------------------
  alpha Z        PSCENC =         0.47150036
  Ewald energy   TEWEN  =       229.00846249
  -Hartree energ DENC   =     -2009.58469927
  -exchange      EXHF   =         0.00000000
  -V(xc)+E(xc)   XCENC  =        52.69253458
  PAW double counting   =      2020.43133103    -2072.69044307
  entropy T*S    EENTRO =        -0.00000000
  eigenvalues    EBANDS =      -152.01048024
  atomic energy  EATOM  =      1852.16664478
  ---------------------------------------------------
  free energy    TOTEN  =       -79.51514934 eV

  energy without entropy =      -79.51514934  energy(sigma->0) =      -79.51514934


--------------------------------------------------------------------------------------------------------




--------------------------------------- Iteration      1(   5)  ---------------------------------------


    POTLOK:  cpu time      0.6820: real time      0.6825
    SETDIJ:  cpu time      4.7653: real time      4.7683
    TRIAL :  cpu time      0.3629: real time      0.3635
    CORREC:  cpu time      5.6946: real time      5.6973
    CHARGE:  cpu time      0.1207: real time      0.1206
    --------------------------------------------
      LOOP:  cpu time     11.6359: real time     11.6429

 eigenvalue-minimisations  :     0
 total energy-change (2. order) :-0.5911343E-02  (-0.2482211E-02)
 number of electron      22.0000003 magnetization 
 augmentation part        8.3078430 magnetization 

 Free energy of the ion-electron system (eV)
  ---------------------------------------------------
  alpha Z        PSCENC =         0.47150036
  Ewald energy   TEWEN  =       229.00846249
  -Hartree energ DENC   =     -2011.03152557
  -exchange      EXHF   =         0.00000000
  -V(xc)+E(xc)   XCENC  =        52.75008564
  PAW double counting   =      2049.42457787    -2101.68592303
  entropy T*S    EENTRO =        -0.00000000
  eigenvalues    EBANDS =      -150.62488322
  atomic energy  EATOM  =      1852.16664478
  ---------------------------------------------------
  free energy    TOTEN  =       -79.52106068 eV

  energy without entropy =      -79.52106068  energy(sigma->0) =      -79.52106068


--------------------------------------------------------------------------------------------------------




--------------------------------------- Iteration      1(   6)  ---------------------------------------


    POTLOK:  cpu time      0.6718: real time      0.6721
    SETDIJ:  cpu time      4.7771: real time      4.7800
    TRIAL :  cpu time      0.3702: real time      0.3710
    CORREC:  cpu time      5.6777: real time      5.6809
    CHARGE:  cpu time      0.1178: real time      0.1177
    --------------------------------------------
      LOOP:  cpu time     11.6185: real time     11.6337

 eigenvalue-minimisations  :     0
 total energy-change (2. order) :-0.1136151E-02  (-0.1820244E-02)
 number of electron      22.0000003 magnetization 
 augmentation part        8.3076897 magnetization 

 Free energy of the ion-electron system (eV)
  ---------------------------------------------------
  alpha Z        PSCENC =         0.47150036
  Ewald energy   TEWEN  =       229.00846249
  -Hartree energ DENC   =     -2011.73487649
  -exchange      EXHF   =         0.00000000
  -V(xc)+E(xc)   XCENC  =        52.78058916
  PAW double counting   =      2068.98330167    -2121.25596989
  entropy T*S    EENTRO =        -0.00000000
  eigenvalues    EBANDS =      -149.94184891
  atomic energy  EATOM  =      1852.16664478
  ---------------------------------------------------
  free energy    TOTEN  =       -79.52219683 eV

  energy without entropy =      -79.52219683  energy(sigma->0) =      -79.52219683


--------------------------------------------------------------------------------------------------------




--------------------------------------- Iteration      1(   7)  ---------------------------------------


    POTLOK:  cpu time      0.6504: real time      0.6507
    SETDIJ:  cpu time      4.7677: real time      4.7707
    TRIAL :  cpu time      0.3649: real time      0.3649
    CORREC:  cpu time      5.7023: real time      5.7060
    CHARGE:  cpu time      0.1188: real time      0.1188
    --------------------------------------------
      LOOP:  cpu time     11.6087: real time     11.6234

 eigenvalue-minimisations  :     0
 total energy-change (2. order) :-0.7320231E-03  (-0.1225287E-02)
 number of electron      22.0000003 magnetization 
 augmentation part        8.3057386 magnetization 

 Free energy of the ion-electron system (eV)
  ---------------------------------------------------
  alpha Z        PSCENC =         0.47150036
  Ewald energy   TEWEN  =       229.00846249
  -Hartree energ DENC   =     -2012.04796435
  -exchange      EXHF   =         0.00000000
  -V(xc)+E(xc)   XCENC  =        52.79622218
  PAW double counting   =      2087.80914652    -2140.10215813
  entropy T*S    EENTRO =        -0.00000000
  eigenvalues    EBANDS =      -149.62478270
  atomic energy  EATOM  =      1852.16664478
  ---------------------------------------------------
  free energy    TOTEN  =       -79.52292886 eV

  energy without entropy =      -79.52292886  energy(sigma->0) =      -79.52292886


--------------------------------------------------------------------------------------------------------




--------------------------------------- Iteration      1(   8)  ---------------------------------------


    POTLOK:  cpu time      0.6333: real time      0.6337
    SETDIJ:  cpu time      4.7636: real time      4.7663
    TRIAL :  cpu time      0.3710: real time      0.3709
    CORREC:  cpu time      5.6812: real time      5.6853
    CHARGE:  cpu time      0.1166: real time      0.1166
    --------------------------------------------
      LOOP:  cpu time     11.5692: real time     11.5834

 eigenvalue-minimisations  :     0
 total energy-change (2. order) :-0.3630129E-03  (-0.3402354E-02)
 number of electron      22.0000003 magnetization 
 augmentation part        8.3037357 magnetization 

 Free energy of the ion-electron system (eV)
  ---------------------------------------------------
  alpha Z        PSCENC =         0.47150036
  Ewald energy   TEWEN  =       229.00846249
  -Hartree energ DENC   =     -2012.03775784
  -exchange      EXHF   =         0.00000000
  -V(xc)+E(xc)   XCENC  =        52.79833411
  PAW double counting   =      2104.89239306    -2157.21017740
  entropy T*S    EENTRO =        -0.00000000
  eigenvalues    EBANDS =      -149.61269143
  atomic energy  EATOM  =      1852.16664478
  ---------------------------------------------------
  free energy    TOTEN  =       -79.52329187 eV

  energy without entropy =      -79.52329187  energy(sigma->0) =      -79.52329187


--------------------------------------------------------------------------------------------------------




--------------------------------------- Iteration      1(   9)  ---------------------------------------


    POTLOK:  cpu time      0.6363: real time      0.6360
    SETDIJ:  cpu time      4.7733: real time      4.7770
    TRIAL :  cpu time      0.3784: real time      0.3782
    CORREC:  cpu time      5.7177: real time      5.7210
    CHARGE:  cpu time      0.1206: real time      0.1206
    --------------------------------------------
      LOOP:  cpu time     11.6291: real time     11.6440

 eigenvalue-minimisations  :     0
 total energy-change (2. order) :-0.6418233E-03  (-0.1810575E-02)
 number of electron      22.0000003 magnetization 
 augmentation part        8.3008553 magnetization 

 Free energy of the ion-electron system (eV)
  ---------------------------------------------------
  alpha Z        PSCENC =         0.47150036
  Ewald energy   TEWEN  =       229.00846249
  -Hartree energ DENC   =     -2011.69065581
  -exchange      EXHF   =         0.00000000
  -V(xc)+E(xc)   XCENC  =        52.78294204
  PAW double counting   =      2105.00619987    -2157.33129805
  entropy T*S    EENTRO =        -0.00000000
  eigenvalues    EBANDS =      -149.93772936
  atomic energy  EATOM  =      1852.16664478
  ---------------------------------------------------
  free energy    TOTEN  =       -79.52393369 eV

  energy without entropy =      -79.52393369  energy(sigma->0) =      -79.52393369


--------------------------------------------------------------------------------------------------------




--------------------------------------- Iteration      1(  10)  ---------------------------------------


    POTLOK:  cpu time      0.6367: real time      0.6361
    SETDIJ:  cpu time      4.8036: real time      4.8070
    TRIAL :  cpu time      0.3619: real time      0.3617
    CORREC:  cpu time      5.6839: real time      5.6867
    CHARGE:  cpu time      0.1179: real time      0.1186
    --------------------------------------------
      LOOP:  cpu time     11.6077: real time     11.6214

 eigenvalue-minimisations  :     0
 total energy-change (2. order) :-0.1088314E-02  (-0.1237320E-02)
 number of electron      22.0000003 magnetization 
 augmentation part        8.2989907 magnetization 

 Free energy of the ion-electron system (eV)
  ---------------------------------------------------
  alpha Z        PSCENC =         0.47150036
  Ewald energy   TEWEN  =       229.00846249
  -Hartree energ DENC   =     -2011.18385377
  -exchange      EXHF   =         0.00000000
  -V(xc)+E(xc)   XCENC  =        52.76018977
  PAW double counting   =      2105.41140287    -2157.74683773
  entropy T*S    EENTRO =        -0.00000000
  eigenvalues    EBANDS =      -150.41253078
  atomic energy  EATOM  =      1852.16664478
  ---------------------------------------------------
  free energy    TOTEN  =       -79.52502201 eV

  energy without entropy =      -79.52502201  energy(sigma->0) =      -79.52502201


--------------------------------------------------------------------------------------------------------




--------------------------------------- Iteration      1(  11)  ---------------------------------------


    POTLOK:  cpu time      0.6392: real time      0.6388
    SETDIJ:  cpu time      4.7801: real time      4.7838
    TRIAL :  cpu time      0.3671: real time      0.3670
    CORREC:  cpu time      5.7063: real time      5.7096
    CHARGE:  cpu time      0.1195: real time      0.1202
    --------------------------------------------
      LOOP:  cpu time     11.6160: real time     11.6304

 eigenvalue-minimisations  :     0
 total energy-change (2. order) :-0.1588795E-03  (-0.1375949E-02)
 number of electron      22.0000003 magnetization 
 augmentation part        8.2982750 magnetization 

 Free energy of the ion-electron system (eV)
  ---------------------------------------------------
  alpha Z        PSCENC =         0.47150036
  Ewald energy   TEWEN  =       229.00846249
  -Hartree energ DENC   =     -2010.84190509
  -exchange      EXHF   =         0.00000000
  -V(xc)+E(xc)   XCENC  =        52.74402212
  PAW double counting   =      2106.14826157    -2158.49012279
  entropy T*S    EENTRO =        -0.00000000
  eigenvalues    EBANDS =      -150.73204433
  atomic energy  EATOM  =      1852.16664478
  ---------------------------------------------------
  free energy    TOTEN  =       -79.52518089 eV

  energy without entropy =      -79.52518089  energy(sigma->0) =      -79.52518089


--------------------------------------------------------------------------------------------------------




--------------------------------------- Iteration      1(  12)  ---------------------------------------


    POTLOK:  cpu time      0.6414: real time      0.6409
    SETDIJ:  cpu time      4.7948: real time      4.7986
    TRIAL :  cpu time      0.3663: real time      0.3661
    CORREC:  cpu time      5.6810: real time      5.6841
    CHARGE:  cpu time      0.1193: real time      0.1192
    --------------------------------------------
      LOOP:  cpu time     11.6101: real time     11.6249

 eigenvalue-minimisations  :     0
 total energy-change (2. order) : 0.1686025E-03  (-0.8137124E-03)
 number of electron      22.0000003 magnetization 
 augmentation part        8.2986412 magnetization 

 Free energy of the ion-electron system (eV)
  ---------------------------------------------------
  alpha Z        PSCENC =         0.47150036
  Ewald energy   TEWEN  =       229.00846249
  -Hartree energ DENC   =     -2010.69017491
  -exchange      EXHF   =         0.00000000
  -V(xc)+E(xc)   XCENC  =        52.73534495
  PAW double counting   =      2107.23471227    -2159.57864375
  entropy T*S    EENTRO =        -0.00000000
  eigenvalues    EBANDS =      -150.87285848
  atomic energy  EATOM  =      1852.16664478
  ---------------------------------------------------
  free energy    TOTEN  =       -79.52501229 eV

  energy without entropy =      -79.52501229  energy(sigma->0) =      -79.52501229


--------------------------------------------------------------------------------------------------------




--------------------------------------- Iteration      1(  13)  ---------------------------------------


    POTLOK:  cpu time      0.6351: real time      0.6356
    SETDIJ:  cpu time      4.7679: real time      4.7707
    TRIAL :  cpu time      0.3620: real time      0.3626
    CORREC:  cpu time      5.6727: real time      5.6760
    CHARGE:  cpu time      0.1182: real time      0.1182
    --------------------------------------------
      LOOP:  cpu time     11.5599: real time     11.5747

 eigenvalue-minimisations  :     0
 total energy-change (2. order) :-0.2785997E-03  (-0.1583728E-02)
 number of electron      22.0000003 magnetization 
 augmentation part        8.2993756 magnetization 

 Free energy of the ion-electron system (eV)
  ---------------------------------------------------
  alpha Z        PSCENC =         0.47150036
  Ewald energy   TEWEN  =       229.00846249
  -Hartree energ DENC   =     -2010.71749036
  -exchange      EXHF   =         0.00000000
  -V(xc)+E(xc)   XCENC  =        52.73361900
  PAW double counting   =      2108.72593539    -2161.06784812
  entropy T*S    EENTRO =        -0.00000000
  eigenvalues    EBANDS =      -150.84611442
  atomic energy  EATOM  =      1852.16664478
  ---------------------------------------------------
  free energy    TOTEN  =       -79.52529088 eV

  energy without entropy =      -79.52529088  energy(sigma->0) =      -79.52529088


--------------------------------------------------------------------------------------------------------




--------------------------------------- Iteration      1(  14)  ---------------------------------------


    POTLOK:  cpu time      0.6421: real time      0.6424
    SETDIJ:  cpu time      4.7691: real time      4.7721
    TRIAL :  cpu time      0.3640: real time      0.3646
    CORREC:  cpu time      5.7026: real time      5.7052
    CHARGE:  cpu time      0.1191: real time      0.1191
    --------------------------------------------
      LOOP:  cpu time     11.5999: real time     11.6139

 eigenvalue-minimisations  :     0
 total energy-change (2. order) : 0.6436183E-03  (-0.5497692E-03)
 number of electron      22.0000003 magnetization 
 augmentation part        8.3005548 magnetization 

 Free energy of the ion-electron system (eV)
  ---------------------------------------------------
  alpha Z        PSCENC =         0.47150036
  Ewald energy   TEWEN  =       229.00846249
  -Hartree energ DENC   =     -2010.83406796
  -exchange      EXHF   =         0.00000000
  -V(xc)+E(xc)   XCENC  =        52.73789641
  PAW double counting   =      2109.13442234    -2161.47350655
  entropy T*S    EENTRO =        -0.00000000
  eigenvalues    EBANDS =      -150.73599913
  atomic energy  EATOM  =      1852.16664478
  ---------------------------------------------------
  free energy    TOTEN  =       -79.52464727 eV

  energy without entropy =      -79.52464727  energy(sigma->0) =      -79.52464727


--------------------------------------------------------------------------------------------------------




--------------------------------------- Iteration      1(  15)  ---------------------------------------


    POTLOK:  cpu time      0.6389: real time      0.6390
    SETDIJ:  cpu time      4.8157: real time      4.8185
    TRIAL :  cpu time      0.3637: real time      0.3642
    CORREC:  cpu time      5.6838: real time      5.6868
    CHARGE:  cpu time      0.1211: real time      0.1210
    --------------------------------------------
      LOOP:  cpu time     11.6261: real time     11.6409

 eigenvalue-minimisations  :     0
 total energy-change (2. order) :-0.2083880E-03  (-0.5479401E-03)
 number of electron      22.0000003 magnetization 
 augmentation part        8.3023768 magnetization 

 Free energy of the ion-electron system (eV)
  ---------------------------------------------------
  alpha Z        PSCENC =         0.47150036
  Ewald energy   TEWEN  =       229.00846249
  -Hartree energ DENC   =     -2011.02195706
  -exchange      EXHF   =         0.00000000
  -V(xc)+E(xc)   XCENC  =        52.74472873
  PAW double counting   =      2109.84429375    -2162.17886383
  entropy T*S    EENTRO =        -0.00000000
  eigenvalues    EBANDS =      -150.55966487
  atomic energy  EATOM  =      1852.16664478
  ---------------------------------------------------
  free energy    TOTEN  =       -79.52485565 eV

  energy without entropy =      -79.52485565  energy(sigma->0) =      -79.52485565


--------------------------------------------------------------------------------------------------------




--------------------------------------- Iteration      1(  16)  ---------------------------------------


    POTLOK:  cpu time      0.6315: real time      0.6316
    SETDIJ:  cpu time      4.7709: real time      4.7738
    TRIAL :  cpu time      0.3670: real time      0.3676
    CORREC:  cpu time      5.6792: real time      5.6821
    CHARGE:  cpu time      0.1208: real time      0.1207
    --------------------------------------------
      LOOP:  cpu time     11.5726: real time     11.5866

 eigenvalue-minimisations  :     0
 total energy-change (2. order) :-0.5653741E-03  (-0.4635981E-03)
 number of electron      22.0000003 magnetization 
 augmentation part        8.3023403 magnetization 

 Free energy of the ion-electron system (eV)
  ---------------------------------------------------
  alpha Z        PSCENC =         0.47150036
  Ewald energy   TEWEN  =       229.00846249
  -Hartree energ DENC   =     -2011.31094094
  -exchange      EXHF   =         0.00000000
  -V(xc)+E(xc)   XCENC  =        52.75516114
  PAW double counting   =      2111.11198097    -2163.43964168
  entropy T*S    EENTRO =        -0.00000000
  eigenvalues    EBANDS =      -150.28858814
  atomic energy  EATOM  =      1852.16664478
  ---------------------------------------------------
  free energy    TOTEN  =       -79.52542103 eV

  energy without entropy =      -79.52542103  energy(sigma->0) =      -79.52542103


--------------------------------------------------------------------------------------------------------




--------------------------------------- Iteration      1(  17)  ---------------------------------------


    POTLOK:  cpu time      0.6387: real time      0.6390
    SETDIJ:  cpu time      4.7651: real time      4.7679
    TRIAL :  cpu time      0.3610: real time      0.3607
    CORREC:  cpu time      5.6652: real time      5.6691
    CHARGE:  cpu time      0.1212: real time      0.1212
    --------------------------------------------
      LOOP:  cpu time     11.5550: real time     11.5694

 eigenvalue-minimisations  :     0
 total energy-change (2. order) : 0.4481767E-03  (-0.4915150E-04)
 number of electron      22.0000003 magnetization 
 augmentation part        8.3023097 magnetization 

 Free energy of the ion-electron system (eV)
  ---------------------------------------------------
  alpha Z        PSCENC =         0.47150036
  Ewald energy   TEWEN  =       229.00846249
  -Hartree energ DENC   =     -2011.30535089
  -exchange      EXHF   =         0.00000000
  -V(xc)+E(xc)   XCENC  =        52.75471603
  PAW double counting   =      2111.24735584    -2163.57528224
  entropy T*S    EENTRO =        -0.00000000
  eigenvalues    EBANDS =      -150.29301922
  atomic energy  EATOM  =      1852.16664478
  ---------------------------------------------------
  free energy    TOTEN  =       -79.52497285 eV

  energy without entropy =      -79.52497285  energy(sigma->0) =      -79.52497285


--------------------------------------------------------------------------------------------------------




--------------------------------------- Iteration      1(  18)  ---------------------------------------


    POTLOK:  cpu time      0.6307: real time      0.6311
    SETDIJ:  cpu time      4.7668: real time      4.7696
    TRIAL :  cpu time      0.3641: real time      0.3638
    CORREC:  cpu time      5.6808: real time      5.6846
    CHARGE:  cpu time      0.1190: real time      0.1189
    --------------------------------------------
      LOOP:  cpu time     11.5657: real time     11.5805

 eigenvalue-minimisations  :     0
 total energy-change (2. order) : 0.4969319E-04  (-0.1423212E-03)
 number of electron      22.0000003 magnetization 
 augmentation part        8.3021306 magnetization 

 Free energy of the ion-electron system (eV)
  ---------------------------------------------------
  alpha Z        PSCENC =         0.47150036
  Ewald energy   TEWEN  =       229.00846249
  -Hartree energ DENC   =     -2011.30068489
  -exchange      EXHF   =         0.00000000
  -V(xc)+E(xc)   XCENC  =        52.75436493
  PAW double counting   =      2111.38548248    -2163.71364929
  entropy T*S    EENTRO =        -0.00000000
  eigenvalues    EBANDS =      -150.29704402
  atomic energy  EATOM  =      1852.16664478
  ---------------------------------------------------
  free energy    TOTEN  =       -79.52492316 eV

  energy without entropy =      -79.52492316  energy(sigma->0) =      -79.52492316


--------------------------------------------------------------------------------------------------------




--------------------------------------- Iteration      1(  19)  ---------------------------------------


    POTLOK:  cpu time      0.6350: real time      0.6347
    SETDIJ:  cpu time      4.7648: real time      4.7685
    TRIAL :  cpu time      0.3656: real time      0.3653
    CORREC:  cpu time      5.6697: real time      5.6724
    CHARGE:  cpu time      0.1180: real time      0.1188
    --------------------------------------------
      LOOP:  cpu time     11.5562: real time     11.5703

 eigenvalue-minimisations  :     0
 total energy-change (2. order) :-0.3758085E-03  (-0.1775915E-03)
 number of electron      22.0000003 magnetization 
 augmentation part        8.3021326 magnetization 

 Free energy of the ion-electron system (eV)
  ---------------------------------------------------
  alpha Z        PSCENC =         0.47150036
  Ewald energy   TEWEN  =       229.00846249
  -Hartree energ DENC   =     -2011.27436392
  -exchange      EXHF   =         0.00000000
  -V(xc)+E(xc)   XCENC  =        52.75243579
  PAW double counting   =      2112.30532320    -2164.63499993
  entropy T*S    EENTRO =        -0.00000000
  eigenvalues    EBANDS =      -150.32030173
  atomic energy  EATOM  =      1852.16664478
  ---------------------------------------------------
  free energy    TOTEN  =       -79.52529897 eV

  energy without entropy =      -79.52529897  energy(sigma->0) =      -79.52529897


--------------------------------------------------------------------------------------------------------




--------------------------------------- Iteration      1(  20)  ---------------------------------------


    POTLOK:  cpu time      0.6334: real time      0.6329
    SETDIJ:  cpu time      4.8171: real time      4.8204
    TRIAL :  cpu time      0.3670: real time      0.3668
    CORREC:  cpu time      5.6969: real time      5.7000
    CHARGE:  cpu time      0.1186: real time      0.1193
    --------------------------------------------
      LOOP:  cpu time     11.6361: real time     11.6501

 eigenvalue-minimisations  :     0
 total energy-change (2. order) : 0.1894048E-03  (-0.2311721E-04)
 number of electron      22.0000003 magnetization 
 augmentation part        8.3021351 magnetization 

 Free energy of the ion-electron system (eV)
  ---------------------------------------------------
  alpha Z        PSCENC =         0.47150036
  Ewald energy   TEWEN  =       229.00846249
  -Hartree energ DENC   =     -2011.27556033
  -exchange      EXHF   =         0.00000000
  -V(xc)+E(xc)   XCENC  =        52.75239873
  PAW double counting   =      2112.40501470    -2164.73476258
  entropy T*S    EENTRO =        -0.00000000
  eigenvalues    EBANDS =      -150.31880770
  atomic energy  EATOM  =      1852.16664478
  ---------------------------------------------------
  free energy    TOTEN  =       -79.52510956 eV

  energy without entropy =      -79.52510956  energy(sigma->0) =      -79.52510956


--------------------------------------------------------------------------------------------------------




--------------------------------------- Iteration      1(  21)  ---------------------------------------


    POTLOK:  cpu time      0.6374: real time      0.6370
    SETDIJ:  cpu time      4.7764: real time      4.7798
    TRIAL :  cpu time      0.3623: real time      0.3621
    CORREC:  cpu time      5.6814: real time      5.6840
    CHARGE:  cpu time      0.1179: real time      0.1179
    --------------------------------------------
      LOOP:  cpu time     11.5786: real time     11.5919

 eigenvalue-minimisations  :     0
 total energy-change (2. order) : 0.5498663E-04  (-0.1825683E-04)
 number of electron      22.0000003 magnetization 
 augmentation part        8.3021380 magnetization 

 Free energy of the ion-electron system (eV)
  ---------------------------------------------------
  alpha Z        PSCENC =         0.47150036
  Ewald energy   TEWEN  =       229.00846249
  -Hartree energ DENC   =     -2011.27643738
  -exchange      EXHF   =         0.00000000
  -V(xc)+E(xc)   XCENC  =        52.75234313
  PAW double counting   =      2112.47914468    -2164.80893954
  entropy T*S    EENTRO =        -0.00000000
  eigenvalues    EBANDS =      -150.31777310
  atomic energy  EATOM  =      1852.16664478
  ---------------------------------------------------
  free energy    TOTEN  =       -79.52505458 eV

  energy without entropy =      -79.52505458  energy(sigma->0) =      -79.52505458


--------------------------------------------------------------------------------------------------------




--------------------------------------- Iteration      1(  22)  ---------------------------------------


    POTLOK:  cpu time      0.6305: real time      0.6306
    SETDIJ:  cpu time      4.7629: real time      4.7659
    TRIAL :  cpu time      0.3635: real time      0.3642
    CORREC:  cpu time      5.6723: real time      5.6751
    CHARGE:  cpu time      0.1302: real time      0.1302
    --------------------------------------------
      LOOP:  cpu time     11.5625: real time     11.5764

 eigenvalue-minimisations  :     0
 total energy-change (2. order) : 0.2010028E-04  (-0.1422101E-04)
 number of electron      22.0000003 magnetization 
 augmentation part        8.3021429 magnetization 

 Free energy of the ion-electron system (eV)
  ---------------------------------------------------
  alpha Z        PSCENC =         0.47150036
  Ewald energy   TEWEN  =       229.00846249
  -Hartree energ DENC   =     -2011.27743831
  -exchange      EXHF   =         0.00000000
  -V(xc)+E(xc)   XCENC  =        52.75232747
  PAW double counting   =      2112.56184988    -2164.89169733
  entropy T*S    EENTRO =        -0.00000000
  eigenvalues    EBANDS =      -150.31668381
  atomic energy  EATOM  =      1852.16664478
  ---------------------------------------------------
  free energy    TOTEN  =       -79.52503448 eV

  energy without entropy =      -79.52503448  energy(sigma->0) =      -79.52503448


--------------------------------------------------------------------------------------------------------




--------------------------------------- Iteration      1(  23)  ---------------------------------------


    POTLOK:  cpu time      0.6410: real time      0.6413
    SETDIJ:  cpu time      4.7707: real time      4.7736
    TRIAL :  cpu time      0.3636: real time      0.3643
    CORREC:  cpu time      5.6824: real time      5.6854
    CHARGE:  cpu time      0.1175: real time      0.1174
    --------------------------------------------
      LOOP:  cpu time     11.5798: real time     11.5938

 eigenvalue-minimisations  :     0
 total energy-change (2. order) : 0.7056628E-05  (-0.5829027E-04)
 number of electron      22.0000003 magnetization 
 augmentation part        8.3021635 magnetization 

 Free energy of the ion-electron system (eV)
  ---------------------------------------------------
  alpha Z        PSCENC =         0.47150036
  Ewald energy   TEWEN  =       229.00846249
  -Hartree energ DENC   =     -2011.27912000
  -exchange      EXHF   =         0.00000000
  -V(xc)+E(xc)   XCENC  =        52.75227133
  PAW double counting   =      2112.71124892    -2165.04119238
  entropy T*S    EENTRO =        -0.00000000
  eigenvalues    EBANDS =      -150.31484293
  atomic energy  EATOM  =      1852.16664478
  ---------------------------------------------------
  free energy    TOTEN  =       -79.52502742 eV

  energy without entropy =      -79.52502742  energy(sigma->0) =      -79.52502742


--------------------------------------------------------------------------------------------------------




--------------------------------------- Iteration      1(  24)  ---------------------------------------


    POTLOK:  cpu time      0.6318: real time      0.6321
    SETDIJ:  cpu time      4.7635: real time      4.7662
    TRIAL :  cpu time      0.3633: real time      0.3638
    CORREC:  cpu time      5.6742: real time      5.6766
    CHARGE:  cpu time      0.1180: real time      0.1180
    --------------------------------------------
      LOOP:  cpu time     11.5617: real time     11.5679

 eigenvalue-minimisations  :     0
 total energy-change (2. order) :-0.1089661E-03  (-0.3202574E-04)
 number of electron      22.0000003 magnetization 
 augmentation part        8.3021642 magnetization 

 Free energy of the ion-electron system (eV)
  ---------------------------------------------------
  alpha Z        PSCENC =         0.47150036
  Ewald energy   TEWEN  =       229.00846249
  -Hartree energ DENC   =     -2011.28653223
  -exchange      EXHF   =         0.00000000
  -V(xc)+E(xc)   XCENC  =        52.75201482
  PAW double counting   =      2113.43432796    -2165.76474506
  entropy T*S    EENTRO =        -0.00000000
  eigenvalues    EBANDS =      -150.30680950
  atomic energy  EATOM  =      1852.16664478
  ---------------------------------------------------
  free energy    TOTEN  =       -79.52513638 eV

  energy without entropy =      -79.52513638  energy(sigma->0) =      -79.52513638


--------------------------------------------------------------------------------------------------------




--------------------------------------- Iteration      1(  25)  ---------------------------------------


    POTLOK:  cpu time      0.6303: real time      0.6305
    SETDIJ:  cpu time      4.7889: real time      4.7915
    TRIAL :  cpu time      0.3646: real time      0.3644
    CORREC:  cpu time      5.7134: real time      5.7174
    CHARGE:  cpu time      0.1177: real time      0.1176
    --------------------------------------------
      LOOP:  cpu time     11.6200: real time     11.6341

 eigenvalue-minimisations  :     0
 total energy-change (2. order) : 0.4773854E-04  (-0.1400456E-04)
 number of electron      22.0000003 magnetization 
 augmentation part        8.3021651 magnetization 

 Free energy of the ion-electron system (eV)
  ---------------------------------------------------
  alpha Z        PSCENC =         0.47150036
  Ewald energy   TEWEN  =       229.00846249
  -Hartree energ DENC   =     -2011.28683051
  -exchange      EXHF   =         0.00000000
  -V(xc)+E(xc)   XCENC  =        52.75197888
  PAW double counting   =      2113.48856300    -2165.81901761
  entropy T*S    EENTRO =        -0.00000000
  eigenvalues    EBANDS =      -150.30639004
  atomic energy  EATOM  =      1852.16664478
  ---------------------------------------------------
  free energy    TOTEN  =       -79.52508865 eV

  energy without entropy =      -79.52508865  energy(sigma->0) =      -79.52508865


--------------------------------------------------------------------------------------------------------




--------------------------------------- Iteration      1(  26)  ---------------------------------------


    POTLOK:  cpu time      0.6316: real time      0.6316
    SETDIJ:  cpu time      4.7761: real time      4.7790
    TRIAL :  cpu time      0.3635: real time      0.3633
    CORREC:  cpu time      5.6832: real time      5.6871
    CHARGE:  cpu time      0.1185: real time      0.1184
    --------------------------------------------
      LOOP:  cpu time     11.5763: real time     11.5907

 eigenvalue-minimisations  :     0
 total energy-change (2. order) : 0.1030985E-04  (-0.9823470E-05)
 number of electron      22.0000003 magnetization 
 augmentation part        8.3021660 magnetization 

 Free energy of the ion-electron system (eV)
  ---------------------------------------------------
  alpha Z        PSCENC =         0.47150036
  Ewald energy   TEWEN  =       229.00846249
  -Hartree energ DENC   =     -2011.28713138
  -exchange      EXHF   =         0.00000000
  -V(xc)+E(xc)   XCENC  =        52.75195451
  PAW double counting   =      2113.53704400    -2165.86753115
  entropy T*S    EENTRO =        -0.00000000
  eigenvalues    EBANDS =      -150.30602195
  atomic energy  EATOM  =      1852.16664478
  ---------------------------------------------------
  free energy    TOTEN  =       -79.52507834 eV

  energy without entropy =      -79.52507834  energy(sigma->0) =      -79.52507834


--------------------------------------------------------------------------------------------------------




--------------------------------------- Iteration      1(  27)  ---------------------------------------


    POTLOK:  cpu time      0.6270: real time      0.6274
    SETDIJ:  cpu time      4.7741: real time      4.7770
    TRIAL :  cpu time      0.3635: real time      0.3634
    CORREC:  cpu time      5.6756: real time      5.6795
    CHARGE:  cpu time      0.1248: real time      0.1247
    --------------------------------------------
      LOOP:  cpu time     11.5680: real time     11.5834

 eigenvalue-minimisations  :     0
 total energy-change (2. order) : 0.1566137E-04  (-0.2529688E-05)
 number of electron      22.0000003 magnetization 
 augmentation part        8.3021666 magnetization 

 Free energy of the ion-electron system (eV)
  ---------------------------------------------------
  alpha Z        PSCENC =         0.47150036
  Ewald energy   TEWEN  =       229.00846249
  -Hartree energ DENC   =     -2011.28744152
  -exchange      EXHF   =         0.00000000
  -V(xc)+E(xc)   XCENC  =        52.75193906
  PAW double counting   =      2113.58186973    -2165.91238700
  entropy T*S    EENTRO =        -0.00000000
  eigenvalues    EBANDS =      -150.30565058
  atomic energy  EATOM  =      1852.16664478
  ---------------------------------------------------
  free energy    TOTEN  =       -79.52506268 eV

  energy without entropy =      -79.52506268  energy(sigma->0) =      -79.52506268


--------------------------------------------------------------------------------------------------------




--------------------------------------- Iteration      1(  28)  ---------------------------------------


    POTLOK:  cpu time      0.6326: real time      0.6320
    SETDIJ:  cpu time      4.7708: real time      4.7745
    TRIAL :  cpu time      0.3659: real time      0.3656
    CORREC:  cpu time      5.6798: real time      5.6829
    CHARGE:  cpu time      0.1234: real time      0.1241
    --------------------------------------------
      LOOP:  cpu time     11.5770: real time     11.5909

 eigenvalue-minimisations  :     0
 total energy-change (2. order) : 0.7084657E-05  (-0.1298038E-05)
 number of electron      22.0000003 magnetization 
 augmentation part        8.3021671 magnetization 

 Free energy of the ion-electron system (eV)
  ---------------------------------------------------
  alpha Z        PSCENC =         0.47150036
  Ewald energy   TEWEN  =       229.00846249
  -Hartree energ DENC   =     -2011.28766510
  -exchange      EXHF   =         0.00000000
  -V(xc)+E(xc)   XCENC  =        52.75192339
  PAW double counting   =      2113.61541498    -2165.94595443
  entropy T*S    EENTRO =        -0.00000000
  eigenvalues    EBANDS =      -150.30538205
  atomic energy  EATOM  =      1852.16664478
  ---------------------------------------------------
  free energy    TOTEN  =       -79.52505559 eV

  energy without entropy =      -79.52505559  energy(sigma->0) =      -79.52505559


--------------------------------------------------------------------------------------------------------




--------------------------------------- Iteration      1(  29)  ---------------------------------------


    POTLOK:  cpu time      0.6441: real time      0.6435
    SETDIJ:  cpu time      4.7655: real time      4.7692
    TRIAL :  cpu time      0.3637: real time      0.3635
    CORREC:  cpu time      5.6835: real time      5.6862
    CHARGE:  cpu time      0.1179: real time      0.1179
    --------------------------------------------
      LOOP:  cpu time     11.5794: real time     11.5921

 eigenvalue-minimisations  :     0
 total energy-change (2. order) :-0.1318740E-06  (-0.1177560E-05)
 number of electron      22.0000003 magnetization 
 augmentation part        8.3021676 magnetization 

 Free energy of the ion-electron system (eV)
  ---------------------------------------------------
  alpha Z        PSCENC =         0.47150036
  Ewald energy   TEWEN  =       229.00846249
  -Hartree energ DENC   =     -2011.28783183
  -exchange      EXHF   =         0.00000000
  -V(xc)+E(xc)   XCENC  =        52.75191028
  PAW double counting   =      2113.64131945    -2165.97187592
  entropy T*S    EENTRO =        -0.00000000
  eigenvalues    EBANDS =      -150.30518533
  atomic energy  EATOM  =      1852.16664478
  ---------------------------------------------------
  free energy    TOTEN  =       -79.52505572 eV

  energy without entropy =      -79.52505572  energy(sigma->0) =      -79.52505572


--------------------------------------------------------------------------------------------------------




--------------------------------------- Iteration      1(  30)  ---------------------------------------


    POTLOK:  cpu time      0.6313: real time      0.6317
    SETDIJ:  cpu time      4.7752: real time      4.7780
    TRIAL :  cpu time      0.3655: real time      0.3661
    CORREC:  cpu time      5.7373: real time      5.7401
    CHARGE:  cpu time      0.1186: real time      0.1185
    --------------------------------------------
      LOOP:  cpu time     11.6308: real time     11.6459

 eigenvalue-minimisations  :     0
 total energy-change (2. order) : 0.4284744E-05  (-0.1393361E-05)
 number of electron      22.0000003 magnetization 
 augmentation part        8.3021683 magnetization 

 Free energy of the ion-electron system (eV)
  ---------------------------------------------------
  alpha Z        PSCENC =         0.47150036
  Ewald energy   TEWEN  =       229.00846249
  -Hartree energ DENC   =     -2011.28800494
  -exchange      EXHF   =         0.00000000
  -V(xc)+E(xc)   XCENC  =        52.75189653
  PAW double counting   =      2113.66760643    -2165.99818004
  entropy T*S    EENTRO =        -0.00000000
  eigenvalues    EBANDS =      -150.30497705
  atomic energy  EATOM  =      1852.16664478
  ---------------------------------------------------
  free energy    TOTEN  =       -79.52505144 eV

  energy without entropy =      -79.52505144  energy(sigma->0) =      -79.52505144


--------------------------------------------------------------------------------------------------------




--------------------------------------- Iteration      1(  31)  ---------------------------------------


    POTLOK:  cpu time      0.6339: real time      0.6343
    SETDIJ:  cpu time      4.7670: real time      4.7699
    TRIAL :  cpu time      0.3643: real time      0.3649
    CORREC:  cpu time      5.6776: real time      5.6808
    CHARGE:  cpu time      0.1175: real time      0.1175
    --------------------------------------------
      LOOP:  cpu time     11.5636: real time     11.5781

 eigenvalue-minimisations  :     0
 total energy-change (2. order) : 0.4310833E-05  (-0.1481702E-05)
 number of electron      22.0000003 magnetization 
 augmentation part        8.3021693 magnetization 

 Free energy of the ion-electron system (eV)
  ---------------------------------------------------
  alpha Z        PSCENC =         0.47150036
  Ewald energy   TEWEN  =       229.00846249
  -Hartree energ DENC   =     -2011.28822002
  -exchange      EXHF   =         0.00000000
  -V(xc)+E(xc)   XCENC  =        52.75187762
  PAW double counting   =      2113.70099870    -2166.03159390
  entropy T*S    EENTRO =        -0.00000000
  eigenvalues    EBANDS =      -150.30471716
  atomic energy  EATOM  =      1852.16664478
  ---------------------------------------------------
  free energy    TOTEN  =       -79.52504713 eV

  energy without entropy =      -79.52504713  energy(sigma->0) =      -79.52504713


--------------------------------------------------------------------------------------------------------




--------------------------------------- Iteration      1(  32)  ---------------------------------------


    POTLOK:  cpu time      0.6341: real time      0.6345
    SETDIJ:  cpu time      4.7659: real time      4.7687
    TRIAL :  cpu time      0.3651: real time      0.3657
    CORREC:  cpu time      5.6685: real time      5.6713
    CHARGE:  cpu time      0.1169: real time      0.1170
    --------------------------------------------
      LOOP:  cpu time     11.5612: real time     11.5680

 eigenvalue-minimisations  :     0
 total energy-change (2. order) :-0.4501953E-06  (-0.1413749E-05)
 number of electron      22.0000003 magnetization 
 augmentation part        8.3021703 magnetization 

 Free energy of the ion-electron system (eV)
  ---------------------------------------------------
  alpha Z        PSCENC =         0.47150036
  Ewald energy   TEWEN  =       229.00846249
  -Hartree energ DENC   =     -2011.28847961
  -exchange      EXHF   =         0.00000000
  -V(xc)+E(xc)   XCENC  =        52.75185786
  PAW double counting   =      2113.74334060    -2166.07396277
  entropy T*S    EENTRO =        -0.00000000
  eigenvalues    EBANDS =      -150.30441127
  atomic energy  EATOM  =      1852.16664478
  ---------------------------------------------------
  free energy    TOTEN  =       -79.52504758 eV

  energy without entropy =      -79.52504758  energy(sigma->0) =      -79.52504758


--------------------------------------------------------------------------------------------------------




--------------------------------------- Iteration      1(  33)  ---------------------------------------


    POTLOK:  cpu time      0.6314: real time      0.6319
    SETDIJ:  cpu time      4.7665: real time      4.7699
    TRIAL :  cpu time      0.3648: real time      0.3654
    CORREC:  cpu time      5.6812: real time      5.6844
    CHARGE:  cpu time      0.1185: real time      0.1183
    --------------------------------------------
      LOOP:  cpu time     11.5659: real time     11.5820

 eigenvalue-minimisations  :     0
 total energy-change (2. order) : 0.2409216E-05  (-0.2282653E-05)
 number of electron      22.0000003 magnetization 
 augmentation part        8.3021722 magnetization 

 Free energy of the ion-electron system (eV)
  ---------------------------------------------------
  alpha Z        PSCENC =         0.47150036
  Ewald energy   TEWEN  =       229.00846249
  -Hartree energ DENC   =     -2011.28872791
  -exchange      EXHF   =         0.00000000
  -V(xc)+E(xc)   XCENC  =        52.75183678
  PAW double counting   =      2113.78608747    -2166.11673632
  entropy T*S    EENTRO =        -0.00000000
  eigenvalues    EBANDS =      -150.30411282
  atomic energy  EATOM  =      1852.16664478
  ---------------------------------------------------
  free energy    TOTEN  =       -79.52504517 eV

  energy without entropy =      -79.52504517  energy(sigma->0) =      -79.52504517


--------------------------------------------------------------------------------------------------------




--------------------------------------- Iteration      1(  34)  ---------------------------------------


    POTLOK:  cpu time      0.6263: real time      0.6264
    SETDIJ:  cpu time      4.7705: real time      4.7739
    TRIAL :  cpu time      0.3642: real time      0.3641
    CORREC:  cpu time      5.6861: real time      5.6905
    CHARGE:  cpu time      0.1195: real time      0.1194
    --------------------------------------------
      LOOP:  cpu time     11.5698: real time     11.5853

 eigenvalue-minimisations  :     0
 total energy-change (2. order) :-0.1231997E-05  (-0.3676074E-05)
 number of electron      22.0000003 magnetization 
 augmentation part        8.3021752 magnetization 

 Free energy of the ion-electron system (eV)
  ---------------------------------------------------
  alpha Z        PSCENC =         0.47150036
  Ewald energy   TEWEN  =       229.00846249
  -Hartree energ DENC   =     -2011.28912733
  -exchange      EXHF   =         0.00000000
  -V(xc)+E(xc)   XCENC  =        52.75180073
  PAW double counting   =      2113.85910072    -2166.18979445
  entropy T*S    EENTRO =        -0.00000000
  eigenvalues    EBANDS =      -150.30363370
  atomic energy  EATOM  =      1852.16664478
  ---------------------------------------------------
  free energy    TOTEN  =       -79.52504640 eV

  energy without entropy =      -79.52504640  energy(sigma->0) =      -79.52504640


--------------------------------------------------------------------------------------------------------




--------------------------------------- Iteration      1(  35)  ---------------------------------------


    POTLOK:  cpu time      0.6330: real time      0.6331
    SETDIJ:  cpu time      4.7793: real time      4.7825
    TRIAL :  cpu time      0.3649: real time      0.3647
    CORREC:  cpu time      5.7182: real time      5.7226
    CHARGE:  cpu time      0.1205: real time      0.1203
    --------------------------------------------
      LOOP:  cpu time     11.6186: real time     11.6341

 eigenvalue-minimisations  :     0
 total energy-change (2. order) :-0.4089169E-05  (-0.1418999E-05)
 number of electron      22.0000003 magnetization 
 augmentation part        8.3021763 magnetization 

 Free energy of the ion-electron system (eV)
  ---------------------------------------------------
  alpha Z        PSCENC =         0.47150036
  Ewald energy   TEWEN  =       229.00846249
  -Hartree energ DENC   =     -2011.28973762
  -exchange      EXHF   =         0.00000000
  -V(xc)+E(xc)   XCENC  =        52.75175034
  PAW double counting   =      2113.97332067    -2166.30408380
  entropy T*S    EENTRO =        -0.00000000
  eigenvalues    EBANDS =      -150.30290771
  atomic energy  EATOM  =      1852.16664478
  ---------------------------------------------------
  free energy    TOTEN  =       -79.52505049 eV

  energy without entropy =      -79.52505049  energy(sigma->0) =      -79.52505049


--------------------------------------------------------------------------------------------------------




--------------------------------------- Iteration      1(  36)  ---------------------------------------


    POTLOK:  cpu time      0.6350: real time      0.6361
    SETDIJ:  cpu time      4.7715: real time      4.7756
    TRIAL :  cpu time      0.3623: real time      0.3622
    CORREC:  cpu time      5.6910: real time      5.6952
    EDDIAG:  cpu time      0.1576: real time      0.1573
    CHARGE:  cpu time      0.1186: real time      0.1186
    --------------------------------------------
      LOOP:  cpu time     11.7381: real time     11.7569

 eigenvalue-minimisations  :     0
 total energy-change (2. order) :-0.9761811E-06  (-0.9257361E-06)
 number of electron      22.0000003 magnetization 
 augmentation part        8.3021772 magnetization 

 Free energy of the ion-electron system (eV)
  ---------------------------------------------------
  alpha Z        PSCENC =         0.47150036
  Ewald energy   TEWEN  =       229.00846249
  -Hartree energ DENC   =     -2011.28995131
  -exchange      EXHF   =         0.00000000
  -V(xc)+E(xc)   XCENC  =        52.75173451
  PAW double counting   =      2114.01413512    -2166.34492269
  entropy T*S    EENTRO =        -0.00000000
  eigenvalues    EBANDS =      -150.30265472
  atomic energy  EATOM  =      1852.16664478
  ---------------------------------------------------
  free energy    TOTEN  =       -79.52505147 eV

  energy without entropy =      -79.52505147  energy(sigma->0) =      -79.52505147


--------------------------------------------------------------------------------------------------------


  average scaling for gradient   0.2586


 average (electrostatic) potential at core
  the test charge radii are     1.2098
  (the norm of the test charge is              1.0000)
       1 -81.1767       2 -81.1767
 
 
 
 E-fermi :  -5.8387     XC(G=0):  -0.2034     alpha+bet : -0.0481

 Fermi energy:        -5.8386754727

 k-point     1 :       0.0000    0.0000    0.0000
  band No.  band energies     occupation 
      1      -8.6347      2.00000
      2      -7.7097      2.00000
      3      -7.7096      2.00000
      4      -6.7752      2.00000
      5      -6.7749      2.00000
      6      -6.4535      2.00000
      7      -6.4532      2.00000
      8      -6.1972      2.00000
      9      -6.1971      2.00000
     10      -6.1635      2.00000
     11      -6.0823      2.00000
     12      -3.7349      0.00000
     13      -0.8023      0.00000
     14      -0.6519      0.00000
     15      -0.6128      0.00000
     16      -0.4777      0.00000
     17      -0.0767      0.00000
     18       0.1453      0.00000
     19       0.2539      0.00000
     20       0.3161      0.00000
     21       0.3319      0.00000
     22       0.3839      0.00000
     23       0.4229      0.00000
     24       0.5144      0.00000
     25       0.5273      0.00000
     26       0.5296      0.00000
     27       0.5994      0.00000
     28       0.6101      0.00000
     29       0.6378      0.00000
     30       0.6567      0.00000
     31       0.6656      0.00000
     32       0.6658      0.00000


--------------------------------------------------------------------------------------------------------


 soft charge-density along one line, spin component           1
         0         1         2         3         4         5         6         7         8         9
 total charge-density along one line
 
 pseudopotential strength for first ion, spin component:           1
 -9.241  -0.000  -0.000   0.000   0.000  -9.368  -0.000  -0.000
 -0.000  -9.137   0.000  -0.000  -0.000  -0.000  -9.266   0.000
 -0.000   0.000  -9.168   0.000   0.053  -0.000   0.000  -9.297
  0.000  -0.000   0.000  -9.241  -0.000   0.000  -0.000   0.000
  0.000  -0.000   0.053  -0.000  -9.230   0.000  -0.000   0.053
 -9.368  -0.000  -0.000   0.000   0.000  -9.481  -0.000  -0.000
 -0.000  -9.266   0.000  -0.000  -0.000  -0.000  -9.380   0.000
 -0.000   0.000  -9.297   0.000   0.053  -0.000   0.000  -9.411
  0.000  -0.000   0.000  -9.368  -0.000   0.000  -0.000   0.000
  0.000  -0.000   0.053  -0.000  -9.359   0.000  -0.000   0.053
 -0.000  -0.000  -0.020   0.000   0.035  -0.000  -0.000  -0.020
 -0.000  -0.000  -0.030   0.000   0.052  -0.000  -0.000  -0.029
  0.037   0.000   0.000   0.000   0.000   0.037   0.000   0.000
  0.000  -0.000  -0.000   0.037   0.000   0.000  -0.000  -0.000
 -0.000   0.000  -0.024   0.000   0.042  -0.000   0.000  -0.024
  0.033   0.000   0.000   0.000   0.000   0.034   0.000   0.000
  0.000  -0.000  -0.000   0.033   0.000   0.000  -0.000  -0.000
 -0.000   0.000  -0.022   0.000   0.039  -0.000   0.000  -0.022
 total augmentation occupancy for first ion, spin component:           1
  3.374   0.000  -0.000   0.000   0.000  -1.022  -0.000  -0.000  -0.000  -0.000  -0.000   0.000   0.028   0.000  -0.000   0.050
  0.000   2.947  -0.000  -0.000   0.000  -0.000  -0.525   0.000   0.000  -0.000   0.000   0.000  -0.000   0.000   0.000   0.000
 -0.000  -0.000   3.124  -0.000  -0.306   0.000   0.000  -0.800   0.000   0.475   1.317  -0.479   0.000  -0.000  -0.080  -0.000
  0.000  -0.000  -0.000   3.374  -0.000   0.000   0.000   0.000  -1.022   0.000  -0.000   0.000   0.000   0.028  -0.000  -0.000
  0.000   0.000  -0.306  -0.000   3.478  -0.000   0.000   0.475   0.000  -1.349  -2.281   0.829  -0.000   0.000   0.138  -0.000
 -1.022  -0.000   0.000   0.000  -0.000   0.668   0.000  -0.000  -0.000   0.000   0.000  -0.000  -0.073  -0.000   0.000  -0.004
 -0.000  -0.525   0.000   0.000   0.000   0.000   0.112  -0.000  -0.000  -0.000  -0.000   0.000   0.000  -0.000  -0.000  -0.000
 -0.000   0.000  -0.800   0.000   0.475  -0.000  -0.000   0.464  -0.000  -0.608  -1.065   0.390   0.000   0.000   0.138  -0.000
 -0.000   0.000   0.000  -1.022   0.000  -0.000  -0.000  -0.000   0.668   0.000   0.000  -0.000  -0.000  -0.073  -0.000   0.000
 -0.000  -0.000   0.475   0.000  -1.349   0.000  -0.000  -0.608   0.000   1.166   1.845  -0.676  -0.000  -0.000  -0.240   0.000
 -0.000   0.000   1.317  -0.000  -2.281   0.000  -0.000  -1.065   0.000   1.845   4.912  -1.733  -0.000  -0.000  -0.442   0.000
  0.000   0.000  -0.479   0.000   0.829  -0.000   0.000   0.390  -0.000  -0.676  -1.733   0.613   0.000   0.000   0.160  -0.000
  0.028  -0.000   0.000   0.000  -0.000  -0.073   0.000   0.000  -0.000  -0.000  -0.000   0.000   0.012   0.000   0.000  -0.002
  0.000   0.000  -0.000   0.028   0.000  -0.000  -0.000   0.000  -0.073  -0.000  -0.000   0.000   0.000   0.012   0.000   0.000
 -0.000   0.000  -0.080  -0.000   0.138   0.000  -0.000   0.138  -0.000  -0.240  -0.442   0.160   0.000   0.000   0.064  -0.000
  0.050   0.000  -0.000  -0.000  -0.000  -0.004  -0.000  -0.000   0.000   0.000   0.000  -0.000  -0.002   0.000  -0.000   0.001
 -0.000   0.000   0.000   0.050  -0.000   0.000  -0.000  -0.000  -0.004   0.000   0.000  -0.000   0.000  -0.002  -0.000  -0.000
  0.000  -0.000  -0.015   0.000   0.027  -0.000   0.000  -0.012   0.000   0.021   0.039  -0.014  -0.000  -0.000  -0.009   0.000


------------------------ aborting loop because EDIFF is reached ----------------------------------------


    FORLOC:  cpu time      0.0053: real time      0.0053
    FORNL :  cpu time      0.0528: real time      0.0527
    STRESS:  cpu time      1.6971: real time      1.6994
    FORCOR:  cpu time      0.5400: real time      0.5405
    OFIELD:  cpu time      0.0002: real time      0.0002

  FORCE on cell =-STRESS in cart. coord.  units (eV):
  Direction    XX          YY          ZZ          XY          YZ          ZX
  --------------------------------------------------------------------------------------
  Alpha Z     0.47150     0.47150     0.47150
  Ewald     545.17240  -147.60236  -168.56166     0.00000     0.00000     0.00000
  Hartree   987.53769   522.25197   501.50044    -0.00001     0.00000    -0.00003
  E(xc)    -105.57341  -106.27111  -106.27420    -0.00003     0.00001    -0.00002
  Local   -1845.37902  -716.83896  -675.12696     0.00002    -0.00000     0.00005
  n-local   -20.11768    -2.74632    -2.74258    -0.00003     0.00000    -0.00002
  augment   133.84616   136.54651   136.51753    -0.00000    -0.00001    -0.00000
  Kinetic   303.88799   314.21621   314.20834    -0.00001    -0.00000    -0.00000
  Fock        0.00000     0.00000     0.00000     0.00000     0.00000     0.00000
  -------------------------------------------------------------------------------------
  Total      -0.15437     0.02745    -0.00759    -0.00005     0.00000    -0.00003
  in kB      -0.02503     0.00445    -0.00123    -0.00001     0.00000    -0.00000
  external pressure =       -0.01 kB  Pullay stress =        0.00 kB


 VOLUME and BASIS-vectors are now :
 -----------------------------------------------------------------------------
  energy-cutoff  :      520.00
  volume of cell :     9881.61
      direct lattice vectors                 reciprocal lattice vectors
    21.138852197  0.000000000  0.000000000     0.047306258  0.000000000  0.000000000
     0.000000000 21.138852197  0.000000000     0.000000000  0.047306258  0.000000000
     0.000000000  0.000000000 22.113885220     0.000000000  0.000000000  0.045220457

  length of vectors
    21.138852197 21.138852197 22.113885220     0.047306258  0.047306258  0.045220457


 FORCES acting on ions:
    Electron-Ion                     Ewald-Force                    Non-Local-Force
 -----------------------------------------------------------------------------------------------
   -.276E+03 0.419E-04 0.228E-03   0.269E+03 -.178E-16 0.747E-16   0.721E+01 -.153E-04 -.124E-01
   0.276E+03 -.144E-04 0.160E-03   -.269E+03 0.228E-16 -.128E-16   -.721E+01 0.999E-05 -.124E-01
 -----------------------------------------------------------------------------------------------
   -.262E-03 0.494E-04 -.419E-03   0.000E+00 0.507E-17 0.619E-16   -.180E-03 -.532E-05 -.247E-01
 
 
 POSITION                                       TOTAL-FORCE (eV/Angst)
 -----------------------------------------------------------------------------------
     11.83780     10.56943     13.91372        -0.106811      0.000061     -0.002387
      9.30105     10.56943     13.91372         0.106811     -0.000061      0.002387
 -----------------------------------------------------------------------------------
    total drift:                               -0.000442      0.000044     -0.025168


--------------------------------------------------------------------------------------------------------



  FREE ENERGIE OF THE ION-ELECTRON SYSTEM (eV)
  ---------------------------------------------------
  free  energy   TOTEN  =       -79.52505147 eV

  energy  without entropy=      -79.52505147  energy(sigma->0) =      -79.52505147
 


--------------------------------------------------------------------------------------------------------


    POTLOK:  cpu time      5.4643: real time      5.4681


--------------------------------------------------------------------------------------------------------


     LOOP+:  cpu time    429.8492: real time    430.3593
    4ORBIT:  cpu time      0.0000: real time      0.0000

 total amount of memory used by VASP MPI-rank0    68052. kBytes
=======================================================================

   base      :      30000. kBytes
   nonlr-proj:        332. kBytes
   fftplans  :      11482. kBytes
   grid      :      25425. kBytes
   one-center:         15. kBytes
   wavefun   :        798. kBytes
 
  
  
 General timing and accounting informations for this job:
 ========================================================
  
                  Total CPU time used (sec):      444.108
                            User time (sec):      442.910
                          System time (sec):        1.198
                         Elapsed time (sec):      445.201
  
                   Maximum memory used (kb):      731080.
                   Average memory used (kb):          N/A
  
                          Minor page faults:        35092
                          Major page faults:            0
                 Voluntary context switches:         5285
