 vasp.6.3.0 20Jan22 (build Apr  1 2022 16:44:48) complex                         
 executed on        HPECrayEX_GCC date 2023.01.09  23:40:45
 running  768 mpi-ranks, with    1 threads/rank
 distrk:  each k-point on  384 cores,    2 groups
 distr:  one band on NCORE=   4 cores,   96 groups


--------------------------------------------------------------------------------------------------------


 INCAR:
   SYSTEM = MgO-rocksalt
   ISMEAR = 0
   SIGMA = 0.05
   EDIFF = 1E-6
   ALGO = ALL
   ISTART = 0
   IBRION = -1
   NSW = 0
   ISYM = 2
   METAGGA = R2SCAN
   IVDW = 13
   VDW_S8 = 0.6019
   VDW_A1 = 0.5156
   VDW_A2 = 5.7734
   ENCUT = 520
   PREC = Accurate
   LASPH = .TRUE.
   LREAL = Auto
   ISPIN = 1
   NELM = 200
   NELMIN = 8
   NCORE = 4
   KPAR = 2
   LWAVE = .FALSE.
   LCHARG = .FALSE.

 POTCAR:    PAW_PBE Ag 02Apr2005                  
 POTCAR:    PAW_PBE Ag 02Apr2005                  
   SHA256 =  6550cfa3543261e132c169e1b98a529204624d72be14e2da2e0242bcb74a174d Ag/POTCAR             
   COPYR  = (c) Copyright 02Apr2005 Georg Kresse                                                    
   COPYR  = This file is part of the software VASP. Any use, copying, and all other rights are regul
   COPYR  = If you do not have a valid VASP license, you may not use, copy or distribute this file. 
   VRHFIN =Ag : s1 d10                                                                              
   LEXCH  = PE                                                                                      
   EATOM  =  1037.2675 eV,   76.2370 Ry                                                             
                                                                                                    
   TITEL  = PAW_PBE Ag 02Apr2005                                                                    
   LULTRA =        F    use ultrasoft PP ?                                                          
   IUNSCR =        1    unscreen: 0-lin 1-nonlin 2-no                                               
   RPACOR =    2.000    partial core radius                                                         
   POMASS =  107.868; ZVAL   =   11.000    mass and valenz                                          
   RCORE  =    2.500    outmost cutoff radius                                                       
   RWIGS  =    2.840; RWIGS  =    1.503    wigner-seitz radius (au A)                               
   ENMAX  =  249.844; ENMIN  =  187.383 eV                                                          
   ICORE  =        3    local potential                                                             
   LCOR   =        T    correct aug charges                                                         
   LPAW   =        T    paw PP                                                                      
   EAUG   =  412.496                                                                                
   DEXC   =    0.000                                                                                
   RMAX   =    2.560    core radius for proj-oper                                                   
   RAUG   =    1.300    factor for augmentation sphere                                              
   RDEP   =    2.576    radius for radial grids                                                     
   RDEPT  =    2.072    core radius for aug-charge                                                  
                                                                                                    
   Atomic configuration                                                                             
   12 entries                                                                                       
     n  l   j            E        occ.                                                              
     1  0  0.50    -25324.9161   2.0000                                                             
     2  0  0.50     -3728.5341   2.0000                                                             
     2  1  1.50     -3344.0404   6.0000                                                             
     3  0  0.50      -683.5581   2.0000                                                             
     3  1  1.50      -557.3225   6.0000                                                             
     3  2  2.50      -358.3853  10.0000                                                             
     4  0  0.50       -95.0341   2.0000                                                             
     4  1  1.50       -58.5511   6.0000                                                             
     4  2  2.50        -7.4440  10.0000                                                             
     5  0  0.50        -4.4045   1.0000                                                             
     5  1  0.50        -1.3606   0.0000                                                             
     4  3  2.50        -1.3606   0.0000                                                             
   Description                                                                                      
     l       E           TYP  RCUT    TYP  RCUT                                                     
     2     -7.4439781     23  2.400                                                                 
     2     -8.8045607     23  2.400                                                                 
     0     -4.4044681     23  2.400                                                                 
     0      1.9520038     23  2.400                                                                 
     1     -1.3605826     23  2.500                                                                 
     1     27.2116520     23  2.500                                                                 
     3     -4.0817478     23  2.400                                                                 
  local pseudopotential read in
  partial core-charges read in
  partial kinetic energy density read in
  atomic valenz-charges read in
  non local Contribution for L=           2  read in
    real space projection operators read in
  non local Contribution for L=           2  read in
    real space projection operators read in
  non local Contribution for L=           0  read in
    real space projection operators read in
  non local Contribution for L=           0  read in
    real space projection operators read in
  non local Contribution for L=           1  read in
    real space projection operators read in
  non local Contribution for L=           1  read in
    real space projection operators read in
    PAW grid and wavefunctions read in

   number of l-projection  operators is LMAX  =           6
   number of lm-projection operators is LMMAX =          18

 -----------------------------------------------------------------------------
|                                                                             |
|               ----> ADVICE to this user running VASP <----                  |
|                                                                             |
|     You have a (more or less) 'small supercell' and for smaller cells       |
|     it is recommended to use the reciprocal-space projection scheme!        |
|     The real-space optimization is not efficient for small cells and it     |
|     is also less accurate ...                                               |
|     Therefore, set LREAL=.FALSE. in the INCAR file.                         |
|                                                                             |
 -----------------------------------------------------------------------------

 Optimization of the real space projectors (new method)

 maximal supplied QI-value         = 15.12
 optimisation between [QCUT,QGAM] = [ 11.64, 23.28] = [ 37.95,151.78] Ry 
 Optimized for a Real-space Cutoff    1.45 Angstroem

   l    n(q)    QCUT    max X(q) W(low)/X(q) W(high)/X(q)  e(spline) 
   2      9    11.641    53.897    0.22E-03    0.42E-04    0.28E-06
   2      9    11.641    52.416    0.23E-03    0.44E-04    0.29E-06
   0     10    11.641   122.045    0.51E-04    0.25E-04    0.16E-06
   0     10    11.641    73.629    0.49E-04    0.24E-04    0.16E-06
   1     10    11.641    15.255    0.99E-04    0.55E-04    0.11E-06
   1     10    11.641     9.562    0.81E-04    0.47E-04    0.95E-07
  PAW_PBE Ag 02Apr2005                  :
 energy of atom  1       EATOM=-1037.2675
 kinetic energy error for atom=    0.0047 (will be added to EATOM!!)


 POSCAR: Ag Mg  O
  positions in direct lattice
  No initial velocities read in

 METAGGA = R2SCA    LMAXTAU =  6    LMIXTAU =  F

 WARNING: Using user supplied parameters
     VDW_S8 = 0.602
     VDW_A1 = 0.516
     VDW_A2 = 5.773
     because the xc functional is not supported. Required parameters not
     defined in the INCAR file will be replaced with PBE defaults ones.

 exchange correlation table for  LEXCH =        8
   RHO(1)=    0.500       N(1)  =     2000
   RHO(2)=  100.500       N(2)  =     4000



--------------------------------------------------------------------------------------------------------


 ion  position               nearest neighbor table
   1  0.286  0.505  0.630-   2 2.73   3 2.73
   2  0.398  0.441  0.622-   3 2.68   4 2.73   1 2.73
   3  0.398  0.568  0.615-   2 2.68   1 2.73   4 2.73
   4  0.510  0.505  0.629-   2 2.73   3 2.73

  LATTYP: Found a simple tetragonal cell.
 ALAT       =    21.1388521970
 C/A-ratio  =     1.0461251639
  
  Lattice vectors:
  
 A1 = (  21.1388521970,   0.0000000000,   0.0000000000)
 A2 = (   0.0000000000,  21.1388521970,   0.0000000000)
 A3 = (   0.0000000000,   0.0000000000,  22.1138852197)


Analysis of symmetry for initial positions (statically):
=====================================================================
 Subroutine PRICEL returns:
 Original cell was already a primitive cell.
 

 Routine SETGRP: Setting up the symmetry group for a 
 simple tetragonal supercell.


 Subroutine GETGRP returns: Found  1 space group operations
 (whereof  1 operations were pure point group operations)
 out of a pool of 16 trial point group operations.


The static configuration has the point symmetry C_1 .


Analysis of symmetry for dynamics (positions and initial velocities):
=====================================================================
 Subroutine PRICEL returns:
 Original cell was already a primitive cell.
 

 Routine SETGRP: Setting up the symmetry group for a 
 simple tetragonal supercell.


 Subroutine GETGRP returns: Found  1 space group operations
 (whereof  1 operations were pure point group operations)
 out of a pool of 16 trial point group operations.


The dynamic configuration has the point symmetry C_1 .


Analysis of constrained symmetry for selective dynamics:
=====================================================================
 Subroutine PRICEL returns:
 Original cell was already a primitive cell.
 

 Routine SETGRP: Setting up the symmetry group for a 
 simple tetragonal supercell.


 Subroutine GETGRP returns: Found  1 space group operations
 (whereof  1 operations were pure point group operations)
 out of a pool of 16 trial point group operations.


The constrained configuration has the point symmetry C_1 .


 Subroutine INISYM returns: Found  1 space group operations
 (whereof  1 operations are pure point group operations),
 and found     1 'primitive' translations


----------------------------------------------------------------------------------------

                                     Primitive cell                                     

  volume of cell :    9881.6133

  direct lattice vectors                    reciprocal lattice vectors
    21.138852197  0.000000000  0.000000000     0.047306258  0.000000000  0.000000000
     0.000000000 21.138852197  0.000000000     0.000000000  0.047306258  0.000000000
     0.000000000  0.000000000 22.113885220     0.000000000  0.000000000  0.045220457

  length of vectors
    21.138852197 21.138852197 22.113885220     0.047306258  0.047306258  0.045220457

  position of ions in fractional coordinates (direct lattice)
     0.285624611  0.505285429  0.629857969
     0.397515318  0.441309787  0.621723730
     0.397782759  0.567771369  0.615378518
     0.509772545  0.504527893  0.628685236

  ion indices of the primitive-cell ions
   primitive index   ion index
                 1           1
                 2           2
                 3           3
                 4           4

----------------------------------------------------------------------------------------



 KPOINTS: KPOINTS created by Atomic Simulation Env

Automatic generation of k-mesh.
 Grid dimensions read from file:
 generate k-points for:    1    1    1

 Generating k-lattice:

  Cartesian coordinates                     Fractional coordinates (reciprocal lattice)
     0.047306258  0.000000000  0.000000000     1.000000000  0.000000000  0.000000000
     0.000000000  0.047306258  0.000000000     0.000000000  1.000000000  0.000000000
     0.000000000  0.000000000  0.045220457     0.000000000  0.000000000  1.000000000

  Length of vectors
     0.047306258  0.047306258  0.045220457

  Shift w.r.t. Gamma in fractional coordinates (k-lattice)
     0.000000000  0.000000000  0.000000000

 
 Subroutine IBZKPT returns following result:
 ===========================================
 
 Found      1 irreducible k-points:
 
 Following reciprocal coordinates:
            Coordinates               Weight
  0.000000  0.000000  0.000000      1.000000
 
 Following cartesian coordinates:
            Coordinates               Weight
  0.000000  0.000000  0.000000      1.000000
 


--------------------------------------------------------------------------------------------------------




 Dimension of arrays:
   k-points           NKPTS =      1   k-points in BZ     NKDIM =      1   number of bands    NBANDS=     96
   number of dos      NEDOS =    301   number of ions     NIONS =      4
   non local maximal  LDIM  =      6   non local SUM 2l+1 LMDIM =     18
   total plane-waves  NPLWV = ******
   max r-space proj   IRMAX =   5559   max aug-charges    IRDMAX=  21597
   dimension x,y,z NGX =   160 NGY =  160 NGZ =  168
   dimension x,y,z NGXF=   320 NGYF=  320 NGZF=  336
   support grid    NGXF=   320 NGYF=  320 NGZF=  336
   ions per type =               4
   NGX,Y,Z   is equivalent  to a cutoff of  12.58, 12.58, 12.63 a.u.
   NGXF,Y,Z  is equivalent  to a cutoff of  25.17, 25.17, 25.26 a.u.

 SYSTEM =  MgO-rocksalt                            
 POSCAR =  Ag Mg  O                                

 Startparameter for this run:
   NWRITE =      2    write-flag & timer
   PREC   = accura    normal or accurate (medium, high low for compatibility)
   ISTART =      0    job   : 0-new  1-cont  2-samecut
   ICHARG =      2    charge: 1-file 2-atom 10-const
   ISPIN  =      1    spin polarized calculation?
   LNONCOLLINEAR =      F non collinear calculations
   LSORBIT =      F    spin-orbit coupling
   INIWAV =      1    electr: 0-lowe 1-rand  2-diag
   LASPH  =      T    aspherical Exc in radial PAW
 Electronic Relaxation 1
   ENCUT  =  520.0 eV  38.22 Ry    6.18 a.u.  39.30 39.30 41.12*2*pi/ulx,y,z
   ENINI  =  520.0     initial cutoff
   ENAUG  =  412.5 eV  augmentation charge cutoff
   NELM   =    200;   NELMIN=  8; NELMDL= -5     # of ELM steps 
   EDIFF  = 0.1E-05   stopping-criterion for ELM
   LREAL  =      T    real-space projection
   NLSPLINE    = F    spline interpolate recip. space projectors
   LCOMPAT=      F    compatible to vasp.4.4
   GGA_COMPAT  = T    GGA compatible to vasp.4.4-vasp.4.6
   LMAXPAW     = -100 max onsite density
   LMAXMIX     =    2 max onsite mixed and CHGCAR
   VOSKOWN=      0    Vosko Wilk Nusair interpolation
   ROPT   =   -0.00025
 Ionic relaxation
   EDIFFG = 0.1E-04   stopping-criterion for IOM
   NSW    =      0    number of steps for IOM
   NBLOCK =      1;   KBLOCK =      1    inner block; outer block 
   IBRION =     -1    ionic relax: 0-MD 1-quasi-New 2-CG
   NFREE  =      0    steps in history (QN), initial steepest desc. (CG)
   ISIF   =      2    stress and relaxation
   IWAVPR =     10    prediction:  0-non 1-charg 2-wave 3-comb
   ISYM   =      2    0-nonsym 1-usesym 2-fastsym
   LCORR  =      T    Harris-Foulkes like correction to forces

   POTIM  = 0.5000    time-step for ionic-motion
   TEIN   =    0.0    initial temperature
   TEBEG  =    0.0;   TEEND  =   0.0 temperature during run
   SMASS  =  -3.00    Nose mass-parameter (am)
   estimated Nose-frequenzy (Omega)   =  0.10E-29 period in steps = 0.13E+47 mass=  -0.102E-25a.u.
   SCALEE = 1.0000    scale energy and forces
   NPACO  =    256;   APACO  = 10.0  distance and # of slots for P.C.
   PSTRESS=    0.0 pullay stress

  Mass of Ions in am
   POMASS = 107.87
  Ionic Valenz
   ZVAL   =  11.00
  Atomic Wigner-Seitz radii
   RWIGS  =  -1.00
  virtual crystal weights 
   VCA    =   1.00
   NELECT =      44.0000    total number of electrons
   NUPDOWN=      -1.0000    fix difference up-down

 DOS related values:
   EMIN   =  10.00;   EMAX   =-10.00  energy-range for DOS
   EFERMI =   0.00
   ISMEAR =     0;   SIGMA  =   0.05  broadening in eV -4-tet -1-fermi 0-gaus

 Electronic relaxation 2 (details)
   IALGO  =     58    algorithm
   LDIAG  =      T    sub-space diagonalisation (order eigenvalues)
   LSUBROT=      F    optimize rotation matrix (better conditioning)
   TURBO    =      0    0=normal 1=particle mesh
   IRESTART =      0    0=no restart 2=restart with 2 vectors
   NREBOOT  =      0    no. of reboots
   NMIN     =      0    reboot dimension
   EREF     =   0.00    reference energy to select bands
   IMIX   =      4    mixing-type and parameters
     AMIX     =   0.40;   BMIX     =  1.00
     AMIX_MAG =   1.60;   BMIX_MAG =  1.00
     AMIN     =   0.10
     WC   =   100.;   INIMIX=   1;  MIXPRE=   1;  MAXMIX= -45

 Intra band minimization:
   WEIMIN = 0.0000     energy-eigenvalue tresh-hold
   EBREAK =  0.26E-08  absolut break condition
   DEPER  =   0.30     relativ break condition  

   TIME   =   0.40     timestep for ELM

  volume/ion in A,a.u.               =    2470.40     16671.10
  Fermi-wavevector in a.u.,A,eV,Ry     =   0.269329  0.508958  0.986941  0.072538
  Thomas-Fermi vector in A             =   1.106612

 Write flags
   LWAVE        =      F    write WAVECAR
   LDOWNSAMPLE  =      F    k-point downsampling of WAVECAR
   LCHARG       =      F    write CHGCAR
   LVTOT        =      F    write LOCPOT, total local potential
   LVHAR        =      F    write LOCPOT, Hartree potential only
   LELF         =      F    write electronic localiz. function (ELF)
   LORBIT       =      0    0 simple, 1 ext, 2 COOP (PROOUT), +10 PAW based schemes


 Dipole corrections
   LMONO  =      F    monopole corrections only (constant potential shift)
   LDIPOL =      F    correct potential (dipole corrections)
   IDIPOL =      0    1-x, 2-y, 3-z, 4-all directions 
   EPSILON=  1.0000000 bulk dielectric constant

 Exchange correlation treatment:
   GGA     =    --    GGA type
   LEXCH   =     8    internal setting for exchange type
   LIBXC   =     F    Libxc                    
   VOSKOWN =     0    Vosko Wilk Nusair interpolation
   LHFCALC =     F    Hartree Fock is set to
   LHFONE  =     F    Hartree Fock one center treatment
   AEXX    =    0.0000 exact exchange contribution

 Linear response parameters
   LEPSILON=     F    determine dielectric tensor
   LRPA    =     F    only Hartree local field effects (RPA)
   LNABLA  =     F    use nabla operator in PAW spheres
   LVEL    =     F    velocity operator in full k-point grid
   CSHIFT  =0.1000    complex shift for real part using Kramers Kronig
   OMEGAMAX=  -1.0    maximum frequency
   DEG_THRESHOLD= 0.2000000E-02 threshold for treating states as degnerate
   RTIME   =   -0.100 relaxation time in fs
  (WPLASMAI=    0.000 imaginary part of plasma frequency in eV, 0.658/RTIME)
   DFIELD  = 0.0000000 0.0000000 0.0000000 field for delta impulse in time

  Optional k-point grid parameters
   LKPOINTS_OPT  =     F    use optional k-point grid
   KPOINTS_OPT_MODE=     1    mode for optional k-point grid

 Orbital magnetization related:
   ORBITALMAG=     F  switch on orbital magnetization
   LCHIMAG   =     F  perturbation theory with respect to B field
   DQ        =  0.001000  dq finite difference perturbation B field
   LLRAUG    =     F  two centre corrections for induced B field



--------------------------------------------------------------------------------------------------------


 Static calculation
 charge density and potential will be updated during run
 non-spin polarized calculation
 Conjugate gradient for all bands (Freysoldt, et al. PRB 79, 241103 (2009))
 preconditioned conjugated gradient                                        
 perform sub-space diagonalisation
    before iterative eigenvector-optimisation
 modified Broyden-mixing scheme, WC =      100.0
 initial mixing is a Kerker type mixing with AMIX =  0.4000 and BMIX =      1.0000
 Hartree-type preconditioning will be used
 using additional bands           74
 real space projection scheme for non local part
 use partial core corrections
 no Harris-corrections to forces 
 use gradient corrections 
 use of overlap-Matrix (Vanderbilt PP)
 Gauss-broadening in eV      SIGMA  =   0.05


--------------------------------------------------------------------------------------------------------


  energy-cutoff  :      520.00
  volume of cell :     9881.61
      direct lattice vectors                 reciprocal lattice vectors
    21.138852197  0.000000000  0.000000000     0.047306258  0.000000000  0.000000000
     0.000000000 21.138852197  0.000000000     0.000000000  0.047306258  0.000000000
     0.000000000  0.000000000 22.113885220     0.000000000  0.000000000  0.045220457

  length of vectors
    21.138852197 21.138852197 22.113885220     0.047306258  0.047306258  0.045220457



 k-points in units of 2pi/SCALE and weight: KPOINTS created by Atomic Simulation Env
   0.00000000  0.00000000  0.00000000       1.000

 k-points in reciprocal lattice and weights: KPOINTS created by Atomic Simulation Env
   0.00000000  0.00000000  0.00000000       1.000

 position of ions in fractional coordinates (direct lattice) 
   0.28562461  0.50528543  0.62985797
   0.39751532  0.44130979  0.62172373
   0.39778276  0.56777137  0.61537852
   0.50977254  0.50452789  0.62868524

 position of ions in cartesian coordinates  (Angst):
   6.03777643 10.68115399 13.92860684
   8.40301756  9.32878237 13.74872719
   8.40867095 12.00203505 13.60840992
  10.77600648 10.66514057 13.90267314



--------------------------------------------------------------------------------------------------------


 k-point   1 :   0.0000 0.0000 0.0000  plane waves:  265979

 maximum and minimum number of plane-waves per node :     66495    66494

 maximum number of plane-waves:    265979
 maximum index in each direction: 
   IXMAX=   39   IYMAX=   39   IZMAX=   41
   IXMIN=  -39   IYMIN=  -39   IZMIN=  -41


 real space projection operators:
  total allocation   :       3010.92 KBytes
  max/ min on nodes  :        754.17        750.23


 parallel 3D FFT for wavefunctions:
    minimum data exchange during FFTs selected (reduces bandwidth)
 parallel 3D FFT for charge:
    minimum data exchange during FFTs selected (reduces bandwidth)


 total amount of memory used by VASP MPI-rank0   153549. kBytes
=======================================================================

   base      :      30000. kBytes
   nonlr-proj:       1303. kBytes
   fftplans  :      35474. kBytes
   grid      :      83562. kBytes
   one-center:         15. kBytes
   wavefun   :       3195. kBytes

     INWAV:  cpu time      0.0000: real time      0.0000
 Broyden mixing: mesh for mixing (old mesh)
   NGX = 79   NGY = 79   NGZ = 83
  (NGX  =320   NGY  =320   NGZ  =336)
  gives a total of 518003 points

 initial charge density was supplied:
 charge density of overlapping atoms calculated
 number of electron      44.0000000 magnetization 
 keeping initial charge density in first step


--------------------------------------------------------------------------------------------------------


 Maximum index for non-local projection operator         1349
 Maximum index for augmentation-charges            0 (set IRDMAX)


--------------------------------------------------------------------------------------------------------


 First call to EWALD:  gamma=   0.083
 Maximum number of real-space cells 3x 3x 3
 Maximum number of reciprocal cells 3x 3x 3

    FEWALD:  cpu time      0.0025: real time      0.0025


--------------------------------------- Iteration      1(   1)  ---------------------------------------


    POTLOK:  cpu time      0.3715: real time      0.3717
    SETDIJ:  cpu time      0.6379: real time      0.6388
    TRIAL :  cpu time      1.5720: real time      1.5726
    CORREC:  cpu time      0.0012: real time      0.0012
    --------------------------------------------
      LOOP:  cpu time      2.5840: real time      2.5857

 eigenvalue-minimisations  :   192
 total energy-change (2. order) : 0.2598402E+03  (-0.8429353E+03)
 number of electron      44.0000000 magnetization 
 augmentation part       44.0000000 magnetization 

 Free energy of the ion-electron system (eV)
  ---------------------------------------------------
  alpha Z        PSCENC =         1.37722947
  Ewald energy   TEWEN  =      1752.58193421
  -Hartree energ DENC   =     -5713.61946106
  -exchange      EXHF   =         0.00000000
  -V(xc)+E(xc)   XCENC  =        -2.91218352
  PAW double counting   =      3959.82413171    -3880.66582227
  entropy T*S    EENTRO =        -0.07072844
  eigenvalues    EBANDS =        -5.72607193
  atomic energy  EATOM  =      4149.05112583
  ---------------------------------------------------
  free energy    TOTEN  =       259.84015400 eV

  energy without entropy =      259.91088243  energy(sigma->0) =      259.87551821


--------------------------------------------------------------------------------------------------------




--------------------------------------- Iteration      1(   2)  ---------------------------------------


    TRIAL :  cpu time      3.4289: real time      3.4297
    CORREC:  cpu time      0.0003: real time      0.0003
    --------------------------------------------
      LOOP:  cpu time      3.4324: real time      3.4374

 eigenvalue-minimisations  :   384
 total energy-change (2. order) :-0.3413629E+03  (-0.3399889E+03)
 number of electron      44.0000000 magnetization 
 augmentation part       44.0000000 magnetization 

 Free energy of the ion-electron system (eV)
  ---------------------------------------------------
  alpha Z        PSCENC =         1.37722947
  Ewald energy   TEWEN  =      1752.58193421
  -Hartree energ DENC   =     -5713.61946106
  -exchange      EXHF   =         0.00000000
  -V(xc)+E(xc)   XCENC  =        -2.91218352
  PAW double counting   =      3959.82413171    -3880.66582227
  entropy T*S    EENTRO =        -0.00000000
  eigenvalues    EBANDS =      -347.15969972
  atomic energy  EATOM  =      4149.05112583
  ---------------------------------------------------
  free energy    TOTEN  =       -81.52274535 eV

  energy without entropy =      -81.52274535  energy(sigma->0) =      -81.52274535


--------------------------------------------------------------------------------------------------------




--------------------------------------- Iteration      1(   3)  ---------------------------------------


    TRIAL :  cpu time      1.5336: real time      1.5340
    CORREC:  cpu time      0.0003: real time      0.0003
    --------------------------------------------
      LOOP:  cpu time      1.5360: real time      1.5414

 eigenvalue-minimisations  :   192
 total energy-change (2. order) :-0.1122849E+02  (-0.1122849E+02)
 number of electron      44.0000000 magnetization 
 augmentation part       44.0000000 magnetization 

 Free energy of the ion-electron system (eV)
  ---------------------------------------------------
  alpha Z        PSCENC =         1.37722947
  Ewald energy   TEWEN  =      1752.58193421
  -Hartree energ DENC   =     -5713.61946106
  -exchange      EXHF   =         0.00000000
  -V(xc)+E(xc)   XCENC  =        -2.91218352
  PAW double counting   =      3959.82413171    -3880.66582227
  entropy T*S    EENTRO =        -0.00000000
  eigenvalues    EBANDS =      -358.38819284
  atomic energy  EATOM  =      4149.05112583
  ---------------------------------------------------
  free energy    TOTEN  =       -92.75123848 eV

  energy without entropy =      -92.75123848  energy(sigma->0) =      -92.75123848


--------------------------------------------------------------------------------------------------------




--------------------------------------- Iteration      1(   4)  ---------------------------------------


    TRIAL :  cpu time      1.5321: real time      1.5325
    CORREC:  cpu time      0.0003: real time      0.0003
    --------------------------------------------
      LOOP:  cpu time      1.5400: real time      1.5407

 eigenvalue-minimisations  :   192
 total energy-change (2. order) :-0.6029931E-01  (-0.6029931E-01)
 number of electron      44.0000000 magnetization 
 augmentation part       44.0000000 magnetization 

 Free energy of the ion-electron system (eV)
  ---------------------------------------------------
  alpha Z        PSCENC =         1.37722947
  Ewald energy   TEWEN  =      1752.58193421
  -Hartree energ DENC   =     -5713.61946106
  -exchange      EXHF   =         0.00000000
  -V(xc)+E(xc)   XCENC  =        -2.91218352
  PAW double counting   =      3959.82413171    -3880.66582227
  entropy T*S    EENTRO =        -0.00000000
  eigenvalues    EBANDS =      -358.44849215
  atomic energy  EATOM  =      4149.05112583
  ---------------------------------------------------
  free energy    TOTEN  =       -92.81153778 eV

  energy without entropy =      -92.81153778  energy(sigma->0) =      -92.81153778


--------------------------------------------------------------------------------------------------------




--------------------------------------- Iteration      1(   5)  ---------------------------------------


    TRIAL :  cpu time      1.5329: real time      1.5335
    CORREC:  cpu time      0.0003: real time      0.0003
    CHARGE:  cpu time      0.3222: real time      0.3226
    --------------------------------------------
      LOOP:  cpu time      1.8582: real time      1.8633

 eigenvalue-minimisations  :   192
 total energy-change (2. order) :-0.1442046E-02  (-0.1442046E-02)
 number of electron      44.0000001 magnetization 
 augmentation part       20.6655128 magnetization 

 Free energy of the ion-electron system (eV)
  ---------------------------------------------------
  alpha Z        PSCENC =         1.37722947
  Ewald energy   TEWEN  =      1752.58193421
  -Hartree energ DENC   =     -5713.61946106
  -exchange      EXHF   =         0.00000000
  -V(xc)+E(xc)   XCENC  =        -2.91218352
  PAW double counting   =      3959.82413171    -3880.66582227
  entropy T*S    EENTRO =        -0.00000000
  eigenvalues    EBANDS =      -358.44993420
  atomic energy  EATOM  =      4149.05112583
  ---------------------------------------------------
  free energy    TOTEN  =       -92.81297983 eV

  energy without entropy =      -92.81297983  energy(sigma->0) =      -92.81297983


--------------------------------------------------------------------------------------------------------




--------------------------------------- Iteration      1(   6)  ---------------------------------------


    POTLOK:  cpu time      0.3462: real time      0.3463
    SETDIJ:  cpu time      0.6316: real time      0.6326
    TRIAL :  cpu time      1.8664: real time      1.8673
    CORREC:  cpu time      1.6395: real time      1.6401
    CHARGE:  cpu time      0.3142: real time      0.3143
    --------------------------------------------
      LOOP:  cpu time      4.8085: real time      4.8113

 eigenvalue-minimisations  :     0
 total energy-change (2. order) : 0.1627949E+02  (-0.1949342E+01)
 number of electron      44.0000001 magnetization 
 augmentation part       21.3580616 magnetization 

 Free energy of the ion-electron system (eV)
  ---------------------------------------------------
  alpha Z        PSCENC =         1.37722947
  Ewald energy   TEWEN  =      1752.58193421
  -Hartree energ DENC   =     -5687.28938861
  -exchange      EXHF   =         0.00000000
  -V(xc)+E(xc)   XCENC  =         5.96540704
  PAW double counting   =      4448.58530824    -4373.40234338
  entropy T*S    EENTRO =        -0.00000000
  eigenvalues    EBANDS =      -373.40276569
  atomic energy  EATOM  =      4149.05112583
  ---------------------------------------------------
  free energy    TOTEN  =       -76.53349288 eV

  energy without entropy =      -76.53349288  energy(sigma->0) =      -76.53349288


--------------------------------------------------------------------------------------------------------




--------------------------------------- Iteration      1(   7)  ---------------------------------------


    POTLOK:  cpu time      0.3380: real time      0.3380
    SETDIJ:  cpu time      0.6387: real time      0.6389
    TRIAL :  cpu time      1.2225: real time      1.2228
    CORREC:  cpu time      1.6356: real time      1.6362
    CHARGE:  cpu time      0.3152: real time      0.3152
    --------------------------------------------
      LOOP:  cpu time      4.1618: real time      4.1632

 eigenvalue-minimisations  :     0
 total energy-change (2. order) :-0.1938347E+01  (-0.1956268E+00)
 number of electron      44.0000001 magnetization 
 augmentation part       21.3494654 magnetization 

 Free energy of the ion-electron system (eV)
  ---------------------------------------------------
  alpha Z        PSCENC =         1.37722947
  Ewald energy   TEWEN  =      1752.58193421
  -Hartree energ DENC   =     -5757.11445263
  -exchange      EXHF   =         0.00000000
  -V(xc)+E(xc)   XCENC  =         7.96832583
  PAW double counting   =      4429.73534969    -4355.44363647
  entropy T*S    EENTRO =        -0.00000000
  eigenvalues    EBANDS =      -306.62771584
  atomic energy  EATOM  =      4149.05112583
  ---------------------------------------------------
  free energy    TOTEN  =       -78.47183991 eV

  energy without entropy =      -78.47183991  energy(sigma->0) =      -78.47183991


--------------------------------------------------------------------------------------------------------




--------------------------------------- Iteration      1(   8)  ---------------------------------------


    POTLOK:  cpu time      0.3446: real time      0.3446
    SETDIJ:  cpu time      0.6323: real time      0.6327
    TRIAL :  cpu time      1.2243: real time      1.2246
    CORREC:  cpu time      1.6332: real time      1.6338
    CHARGE:  cpu time      0.3160: real time      0.3161
    --------------------------------------------
      LOOP:  cpu time      4.1630: real time      4.1648

 eigenvalue-minimisations  :     0
 total energy-change (2. order) :-0.1953233E+00  (-0.5164472E-01)
 number of electron      44.0000001 magnetization 
 augmentation part       21.3857100 magnetization 

 Free energy of the ion-electron system (eV)
  ---------------------------------------------------
  alpha Z        PSCENC =         1.37722947
  Ewald energy   TEWEN  =      1752.58193421
  -Hartree energ DENC   =     -5732.68465043
  -exchange      EXHF   =         0.00000000
  -V(xc)+E(xc)   XCENC  =         7.41778584
  PAW double counting   =      4376.82672489    -4302.60725443
  entropy T*S    EENTRO =        -0.00000000
  eigenvalues    EBANDS =      -330.63005855
  atomic energy  EATOM  =      4149.05112583
  ---------------------------------------------------
  free energy    TOTEN  =       -78.66716317 eV

  energy without entropy =      -78.66716317  energy(sigma->0) =      -78.66716317


--------------------------------------------------------------------------------------------------------




--------------------------------------- Iteration      1(   9)  ---------------------------------------


    POTLOK:  cpu time      0.3403: real time      0.3406
    SETDIJ:  cpu time      0.6380: real time      0.6381
    TRIAL :  cpu time      1.2234: real time      1.2237
    CORREC:  cpu time      1.6385: real time      1.6390
    CHARGE:  cpu time      0.3160: real time      0.3160
    --------------------------------------------
      LOOP:  cpu time      4.1678: real time      4.1695

 eigenvalue-minimisations  :     0
 total energy-change (2. order) :-0.5166096E-01  (-0.1640097E-01)
 number of electron      44.0000001 magnetization 
 augmentation part       21.3774774 magnetization 

 Free energy of the ion-electron system (eV)
  ---------------------------------------------------
  alpha Z        PSCENC =         1.37722947
  Ewald energy   TEWEN  =      1752.58193421
  -Hartree energ DENC   =     -5736.29956557
  -exchange      EXHF   =         0.00000000
  -V(xc)+E(xc)   XCENC  =         7.43968025
  PAW double counting   =      4369.84604348    -4295.67566892
  entropy T*S    EENTRO =        -0.00000000
  eigenvalues    EBANDS =      -327.03960288
  atomic energy  EATOM  =      4149.05112583
  ---------------------------------------------------
  free energy    TOTEN  =       -78.71882413 eV

  energy without entropy =      -78.71882413  energy(sigma->0) =      -78.71882413


--------------------------------------------------------------------------------------------------------




--------------------------------------- Iteration      1(  10)  ---------------------------------------


    POTLOK:  cpu time      0.3426: real time      0.3429
    SETDIJ:  cpu time      0.6410: real time      0.6419
    TRIAL :  cpu time      1.2082: real time      1.2261
    CORREC:  cpu time      1.6322: real time      1.6323
    CHARGE:  cpu time      0.3145: real time      0.3146
    --------------------------------------------
      LOOP:  cpu time      4.1504: real time      4.1701

 eigenvalue-minimisations  :     0
 total energy-change (2. order) :-0.1632955E-01  (-0.3098093E-02)
 number of electron      44.0000001 magnetization 
 augmentation part       21.3868623 magnetization 

 Free energy of the ion-electron system (eV)
  ---------------------------------------------------
  alpha Z        PSCENC =         1.37722947
  Ewald energy   TEWEN  =      1752.58193421
  -Hartree energ DENC   =     -5733.18346586
  -exchange      EXHF   =         0.00000000
  -V(xc)+E(xc)   XCENC  =         7.38371974
  PAW double counting   =      4381.83587876    -4307.43176680
  entropy T*S    EENTRO =        -0.00000000
  eigenvalues    EBANDS =      -330.34980902
  atomic energy  EATOM  =      4149.05112583
  ---------------------------------------------------
  free energy    TOTEN  =       -78.73515368 eV

  energy without entropy =      -78.73515368  energy(sigma->0) =      -78.73515368


--------------------------------------------------------------------------------------------------------




--------------------------------------- Iteration      1(  11)  ---------------------------------------


    POTLOK:  cpu time      0.3381: real time      0.3381
    SETDIJ:  cpu time      0.6361: real time      0.6361
    TRIAL :  cpu time      1.2238: real time      1.2239
    CORREC:  cpu time      1.6340: real time      1.6341
    CHARGE:  cpu time      0.3168: real time      0.3168
    --------------------------------------------
      LOOP:  cpu time      4.1557: real time      4.1622

 eigenvalue-minimisations  :     0
 total energy-change (2. order) :-0.3095909E-02  (-0.6995584E-03)
 number of electron      44.0000001 magnetization 
 augmentation part       21.3828486 magnetization 

 Free energy of the ion-electron system (eV)
  ---------------------------------------------------
  alpha Z        PSCENC =         1.37722947
  Ewald energy   TEWEN  =      1752.58193421
  -Hartree energ DENC   =     -5734.47588940
  -exchange      EXHF   =         0.00000000
  -V(xc)+E(xc)   XCENC  =         7.42876603
  PAW double counting   =      4393.65729488    -4319.19524948
  entropy T*S    EENTRO =        -0.00000000
  eigenvalues    EBANDS =      -329.16346113
  atomic energy  EATOM  =      4149.05112583
  ---------------------------------------------------
  free energy    TOTEN  =       -78.73824959 eV

  energy without entropy =      -78.73824959  energy(sigma->0) =      -78.73824959


--------------------------------------------------------------------------------------------------------




--------------------------------------- Iteration      1(  12)  ---------------------------------------


    POTLOK:  cpu time      0.3437: real time      0.3438
    SETDIJ:  cpu time      0.6362: real time      0.6362
    TRIAL :  cpu time      1.2203: real time      1.2204
    CORREC:  cpu time      1.6382: real time      1.6383
    CHARGE:  cpu time      0.3128: real time      0.3141
    --------------------------------------------
      LOOP:  cpu time      4.1602: real time      4.1657

 eigenvalue-minimisations  :     0
 total energy-change (2. order) :-0.7010495E-03  (-0.2107133E-03)
 number of electron      44.0000001 magnetization 
 augmentation part       21.3843740 magnetization 

 Free energy of the ion-electron system (eV)
  ---------------------------------------------------
  alpha Z        PSCENC =         1.37722947
  Ewald energy   TEWEN  =      1752.58193421
  -Hartree energ DENC   =     -5733.76486046
  -exchange      EXHF   =         0.00000000
  -V(xc)+E(xc)   XCENC  =         7.40875814
  PAW double counting   =      4399.11091684    -4324.62231442
  entropy T*S    EENTRO =        -0.00000000
  eigenvalues    EBANDS =      -329.88174026
  atomic energy  EATOM  =      4149.05112583
  ---------------------------------------------------
  free energy    TOTEN  =       -78.73895064 eV

  energy without entropy =      -78.73895064  energy(sigma->0) =      -78.73895064


--------------------------------------------------------------------------------------------------------




--------------------------------------- Iteration      1(  13)  ---------------------------------------


    POTLOK:  cpu time      0.3401: real time      0.3401
    SETDIJ:  cpu time      0.6370: real time      0.6370
    TRIAL :  cpu time      1.2238: real time      1.2239
    CORREC:  cpu time      1.6356: real time      1.6357
    CHARGE:  cpu time      0.3131: real time      0.3131
    --------------------------------------------
      LOOP:  cpu time      4.1618: real time      4.1623

 eigenvalue-minimisations  :     0
 total energy-change (2. order) :-0.2112095E-03  (-0.4001662E-04)
 number of electron      44.0000001 magnetization 
 augmentation part       21.3859887 magnetization 

 Free energy of the ion-electron system (eV)
  ---------------------------------------------------
  alpha Z        PSCENC =         1.37722947
  Ewald energy   TEWEN  =      1752.58193421
  -Hartree energ DENC   =     -5733.84207028
  -exchange      EXHF   =         0.00000000
  -V(xc)+E(xc)   XCENC  =         7.40956625
  PAW double counting   =      4403.37739378    -4328.88434376
  entropy T*S    EENTRO =        -0.00000000
  eigenvalues    EBANDS =      -329.80999735
  atomic energy  EATOM  =      4149.05112583
  ---------------------------------------------------
  free energy    TOTEN  =       -78.73916185 eV

  energy without entropy =      -78.73916185  energy(sigma->0) =      -78.73916185


--------------------------------------------------------------------------------------------------------




--------------------------------------- Iteration      1(  14)  ---------------------------------------


    POTLOK:  cpu time      0.3409: real time      0.3409
    SETDIJ:  cpu time      0.6383: real time      0.6384
    TRIAL :  cpu time      1.2219: real time      1.2220
    CORREC:  cpu time      1.6354: real time      1.6355
    CHARGE:  cpu time      0.3154: real time      0.3154
    --------------------------------------------
      LOOP:  cpu time      4.1645: real time      4.1654

 eigenvalue-minimisations  :     0
 total energy-change (2. order) :-0.3964164E-04  (-0.7387771E-05)
 number of electron      44.0000001 magnetization 
 augmentation part       21.3854002 magnetization 

 Free energy of the ion-electron system (eV)
  ---------------------------------------------------
  alpha Z        PSCENC =         1.37722947
  Ewald energy   TEWEN  =      1752.58193421
  -Hartree energ DENC   =     -5734.04550690
  -exchange      EXHF   =         0.00000000
  -V(xc)+E(xc)   XCENC  =         7.41357107
  PAW double counting   =      4405.63486782    -4331.14326142
  entropy T*S    EENTRO =        -0.00000000
  eigenvalues    EBANDS =      -329.60916156
  atomic energy  EATOM  =      4149.05112583
  ---------------------------------------------------
  free energy    TOTEN  =       -78.73920149 eV

  energy without entropy =      -78.73920149  energy(sigma->0) =      -78.73920149


--------------------------------------------------------------------------------------------------------




--------------------------------------- Iteration      1(  15)  ---------------------------------------


    POTLOK:  cpu time      0.3394: real time      0.3395
    SETDIJ:  cpu time      0.6504: real time      0.6504
    TRIAL :  cpu time      1.2225: real time      1.2234
    CORREC:  cpu time      1.6371: real time      1.6372
    CHARGE:  cpu time      0.3176: real time      0.3176
    --------------------------------------------
      LOOP:  cpu time      4.1745: real time      4.1810

 eigenvalue-minimisations  :     0
 total energy-change (2. order) :-0.7455533E-05  (-0.2966835E-05)
 number of electron      44.0000001 magnetization 
 augmentation part       21.3853769 magnetization 

 Free energy of the ion-electron system (eV)
  ---------------------------------------------------
  alpha Z        PSCENC =         1.37722947
  Ewald energy   TEWEN  =      1752.58193421
  -Hartree energ DENC   =     -5733.92827516
  -exchange      EXHF   =         0.00000000
  -V(xc)+E(xc)   XCENC  =         7.41042848
  PAW double counting   =      4406.40247313    -4331.91014987
  entropy T*S    EENTRO =        -0.00000000
  eigenvalues    EBANDS =      -329.72397503
  atomic energy  EATOM  =      4149.05112583
  ---------------------------------------------------
  free energy    TOTEN  =       -78.73920895 eV

  energy without entropy =      -78.73920895  energy(sigma->0) =      -78.73920895


--------------------------------------------------------------------------------------------------------




--------------------------------------- Iteration      1(  16)  ---------------------------------------


    POTLOK:  cpu time      0.3399: real time      0.3400
    SETDIJ:  cpu time      0.6395: real time      0.6395
    TRIAL :  cpu time      1.2211: real time      1.2212
    CORREC:  cpu time      1.6340: real time      1.6341
    CHARGE:  cpu time      0.3160: real time      0.3160
    --------------------------------------------
      LOOP:  cpu time      4.1600: real time      4.1639

 eigenvalue-minimisations  :     0
 total energy-change (2. order) :-0.3150282E-05  (-0.1187620E-05)
 number of electron      44.0000001 magnetization 
 augmentation part       21.3856833 magnetization 

 Free energy of the ion-electron system (eV)
  ---------------------------------------------------
  alpha Z        PSCENC =         1.37722947
  Ewald energy   TEWEN  =      1752.58193421
  -Hartree energ DENC   =     -5733.93005586
  -exchange      EXHF   =         0.00000000
  -V(xc)+E(xc)   XCENC  =         7.41035873
  PAW double counting   =      4407.20846291    -4332.71649837
  entropy T*S    EENTRO =        -0.00000000
  eigenvalues    EBANDS =      -329.72176902
  atomic energy  EATOM  =      4149.05112583
  ---------------------------------------------------
  free energy    TOTEN  =       -78.73921210 eV

  energy without entropy =      -78.73921210  energy(sigma->0) =      -78.73921210


--------------------------------------------------------------------------------------------------------




--------------------------------------- Iteration      1(  17)  ---------------------------------------


    POTLOK:  cpu time      0.3369: real time      0.3369
    SETDIJ:  cpu time      0.6372: real time      0.6372
    TRIAL :  cpu time      1.2232: real time      1.2232
    CORREC:  cpu time      1.6354: real time      1.6362
    CHARGE:  cpu time      0.3169: real time      0.3169
    --------------------------------------------
      LOOP:  cpu time      4.1609: real time      4.1625

 eigenvalue-minimisations  :     0
 total energy-change (2. order) :-0.1146133E-05  (-0.1865594E-06)
 number of electron      44.0000001 magnetization 
 augmentation part       21.3856606 magnetization 

 Free energy of the ion-electron system (eV)
  ---------------------------------------------------
  alpha Z        PSCENC =         1.37722947
  Ewald energy   TEWEN  =      1752.58193421
  -Hartree energ DENC   =     -5733.98279819
  -exchange      EXHF   =         0.00000000
  -V(xc)+E(xc)   XCENC  =         7.41162352
  PAW double counting   =      4408.03433458    -4333.54295389
  entropy T*S    EENTRO =        -0.00000000
  eigenvalues    EBANDS =      -329.66970877
  atomic energy  EATOM  =      4149.05112583
  ---------------------------------------------------
  free energy    TOTEN  =       -78.73921324 eV

  energy without entropy =      -78.73921324  energy(sigma->0) =      -78.73921324


--------------------------------------------------------------------------------------------------------




--------------------------------------- Iteration      1(  18)  ---------------------------------------


    POTLOK:  cpu time      0.3397: real time      0.3398
    SETDIJ:  cpu time      0.6423: real time      0.6423
    TRIAL :  cpu time      1.2239: real time      1.2239
    CORREC:  cpu time      1.6382: real time      1.6383
    EDDIAG:  cpu time      0.3332: real time      0.3334
    CHARGE:  cpu time      0.3172: real time      0.3172
    --------------------------------------------
      LOOP:  cpu time      4.5066: real time      4.5074

 eigenvalue-minimisations  :     0
 total energy-change (2. order) :-0.9735686E-07  (-0.9478473E-07)
 number of electron      44.0000001 magnetization 
 augmentation part       21.3856178 magnetization 

 Free energy of the ion-electron system (eV)
  ---------------------------------------------------
  alpha Z        PSCENC =         1.37722947
  Ewald energy   TEWEN  =      1752.58193421
  -Hartree energ DENC   =     -5733.97394089
  -exchange      EXHF   =         0.00000000
  -V(xc)+E(xc)   XCENC  =         7.41141896
  PAW double counting   =      4408.31644883    -4333.82499333
  entropy T*S    EENTRO =        -0.00000000
  eigenvalues    EBANDS =      -329.67843643
  atomic energy  EATOM  =      4149.05112583
  ---------------------------------------------------
  free energy    TOTEN  =       -78.73921334 eV

  energy without entropy =      -78.73921334  energy(sigma->0) =      -78.73921334


--------------------------------------------------------------------------------------------------------


  average scaling for gradient   1.8210


 average (electrostatic) potential at core
  the test charge radii are     1.1249
  (the norm of the test charge is              1.0000)
       1 -86.9275       2 -87.5549       3 -87.5564       4 -86.9282



 E-fermi :  -4.0257     XC(G=0):  -0.1914     alpha+bet : -0.0929

 Fermi energy:        -4.0257088958

 k-point     1 :       0.0000    0.0000    0.0000
  band No.  band energies     occupation 
      1      -9.0320      2.00000
      2      -9.0265      2.00000
      3      -8.5439      2.00000
      4      -8.5310      2.00000
      5      -8.4229      2.00000
      6      -8.2737      2.00000
      7      -8.1028      2.00000
      8      -7.9340      2.00000
      9      -7.6203      2.00000
     10      -7.5764      2.00000
     11      -7.4057      2.00000
     12      -7.2869      2.00000
     13      -7.2597      2.00000
     14      -7.2404      2.00000
     15      -7.1279      2.00000
     16      -7.0964      2.00000
     17      -7.0331      2.00000
     18      -7.0279      2.00000
     19      -6.9460      2.00000
     20      -6.7491      2.00000
     21      -6.3262      2.00000
     22      -4.2919      2.00000
     23      -3.3569      0.00000
     24      -2.1120      0.00000
     25      -1.5211      0.00000
     26      -0.8516      0.00000
     27      -0.6686      0.00000
     28      -0.1529      0.00000
     29       0.1158      0.00000
     30       0.1209      0.00000
     31       0.3960      0.00000
     32       0.3986      0.00000
     33       0.4042      0.00000
     34       0.4195      0.00000
     35       0.4539      0.00000
     36       0.4855      0.00000
     37       0.5161      0.00000
     38       0.7012      0.00000
     39       0.7109      0.00000
     40       0.7234      0.00000
     41       0.7271      0.00000
     42       0.7402      0.00000
     43       0.7412      0.00000
     44       0.7711      0.00000
     45       0.7736      0.00000
     46       0.7782      0.00000
     47       0.8367      0.00000
     48       0.8556      0.00000
     49       0.9072      0.00000
     50       1.0335      0.00000
     51       1.0422      0.00000
     52       1.0843      0.00000
     53       1.0921      0.00000
     54       1.1096      0.00000
     55       1.1390      0.00000
     56       1.1468      0.00000
     57       1.2213      0.00000
     58       1.2370      0.00000
     59       1.3142      0.00000
     60       1.3919      0.00000
     61       1.4084      0.00000
     62       1.4102      0.00000
     63       1.4472      0.00000
     64       1.4676      0.00000
     65       1.4924      0.00000
     66       1.6109      0.00000
     67       1.6116      0.00000
     68       1.6387      0.00000
     69       1.6579      0.00000
     70       1.6695      0.00000
     71       1.6782      0.00000
     72       1.6799      0.00000
     73       1.7067      0.00000
     74       1.7103      0.00000
     75       1.7381      0.00000
     76       1.7445      0.00000
     77       1.7514      0.00000
     78       1.7543      0.00000
     79       1.7565      0.00000
     80       1.7610      0.00000
     81       1.7770      0.00000
     82       1.7909      0.00000
     83       1.7954      0.00000
     84       1.8068      0.00000
     85       1.8152      0.00000
     86       1.8244      0.00000
     87       1.8577      0.00000
     88       1.9013      0.00000
     89       1.9070      0.00000
     90       1.9310      0.00000
     91       1.9527      0.00000
     92       1.9782      0.00000
     93       1.9931      0.00000
     94       2.0130      0.00000
     95       2.0209      0.00000
     96       2.0286      0.00000


--------------------------------------------------------------------------------------------------------


 soft charge-density along one line, spin component           1
         0         1         2         3         4         5         6         7         8         9
 total charge-density along one line

 pseudopotential strength for first ion, spin component:           1
-10.621   0.004  -0.000   0.001   0.000 -10.604   0.004  -0.000
  0.004 -10.583   0.001   0.000  -0.001   0.004 -10.569   0.001
 -0.000   0.001 -10.580   0.002   0.008  -0.000   0.001 -10.566
  0.001   0.000   0.002 -10.594   0.004   0.001   0.000   0.002
  0.000  -0.001   0.008   0.004 -10.619   0.000  -0.001   0.007
-10.604   0.004  -0.000   0.001   0.000 -10.564   0.004  -0.000
  0.004 -10.569   0.001   0.000  -0.001   0.004 -10.530   0.001
 -0.000   0.001 -10.566   0.002   0.007  -0.000   0.001 -10.528
  0.001   0.000   0.002 -10.579   0.004   0.001   0.000   0.002
  0.000  -0.001   0.007   0.004 -10.602   0.000  -0.001   0.007
 -0.000  -0.001  -0.016  -0.005   0.007  -0.000  -0.001  -0.015
 -0.000  -0.002  -0.026  -0.007   0.011  -0.000  -0.002  -0.025
 -0.025   0.005  -0.000   0.000  -0.000  -0.023   0.005  -0.000
  0.000   0.000   0.005  -0.023  -0.000   0.000   0.000   0.005
  0.000   0.000   0.012   0.004  -0.020   0.000   0.000   0.011
 -0.030   0.006  -0.000   0.000  -0.000  -0.028   0.005  -0.000
  0.000   0.000   0.006  -0.026  -0.000   0.000   0.000   0.006
  0.000   0.000   0.014   0.005  -0.021   0.000   0.000   0.013
 total augmentation occupancy for first ion, spin component:           1
  2.401   0.006   0.002   0.005  -0.004  -0.480   0.021  -0.005   0.005   0.003   0.015  -0.004  -0.017   0.001   0.002  -0.017
  0.006   2.438   0.005   0.000  -0.003   0.021  -0.271  -0.006  -0.001   0.003   0.051  -0.013   0.000  -0.000   0.003   0.004
  0.002   0.005   2.594   0.037  -0.173  -0.005  -0.006  -0.456  -0.040   0.213   0.816  -0.228  -0.001  -0.011   0.097   0.000
  0.005   0.000   0.037   2.491  -0.044   0.005  -0.001  -0.040  -0.372   0.056   0.245  -0.065   0.001  -0.004   0.025  -0.000
 -0.004  -0.003  -0.173  -0.044   2.684   0.003   0.003   0.213   0.056  -0.585  -0.433   0.145   0.001   0.009  -0.104  -0.000
 -0.480   0.021  -0.005   0.005   0.003   0.508  -0.043   0.008  -0.014  -0.002  -0.013   0.003   0.083  -0.002  -0.002  -0.008
  0.021  -0.271  -0.006  -0.001   0.003  -0.043   0.095   0.006   0.002  -0.003  -0.040   0.009  -0.008   0.000  -0.004   0.001
 -0.005  -0.006  -0.456  -0.040   0.213   0.008   0.006   0.306   0.042  -0.250  -0.665   0.170   0.001   0.007  -0.123  -0.000
  0.005  -0.001  -0.040  -0.372   0.056  -0.014   0.002   0.042   0.238  -0.067  -0.199   0.049  -0.002   0.037  -0.032   0.000
  0.003   0.003   0.213   0.056  -0.585  -0.002  -0.003  -0.250  -0.067   0.471   0.379  -0.123   0.000  -0.009   0.134   0.000
  0.015   0.051   0.816   0.245  -0.433  -0.013  -0.040  -0.665  -0.199   0.379   3.063  -0.628  -0.003  -0.041   0.301   0.000
 -0.004  -0.013  -0.228  -0.065   0.145   0.003   0.009   0.170   0.049  -0.123  -0.628   0.138   0.001   0.009  -0.077  -0.000
 -0.017   0.000  -0.001   0.001   0.001   0.083  -0.008   0.001  -0.002   0.000  -0.003   0.001   0.017  -0.000  -0.000  -0.002
  0.001  -0.000  -0.011  -0.004   0.009  -0.002   0.000   0.007   0.037  -0.009  -0.041   0.009  -0.000   0.007  -0.006   0.000
  0.002   0.003   0.097   0.025  -0.104  -0.002  -0.004  -0.123  -0.032   0.134   0.301  -0.077  -0.000  -0.006   0.061   0.000
 -0.017   0.004   0.000  -0.000  -0.000  -0.008   0.001  -0.000   0.000   0.000   0.000  -0.000  -0.002   0.000   0.000   0.000
 -0.000   0.000   0.006  -0.021  -0.001   0.000  -0.000  -0.001  -0.002   0.001   0.004  -0.001   0.000  -0.001   0.001  -0.000
 -0.000  -0.000   0.002   0.001  -0.010   0.000   0.000   0.011   0.003  -0.012  -0.030   0.007   0.000   0.001  -0.006  -0.000


------------------------ aborting loop because EDIFF is reached ----------------------------------------


    FORLOC:  cpu time      0.0030: real time      0.0030
    FORNL :  cpu time      0.1318: real time      0.1319
    STRESS:  cpu time      4.2672: real time      4.2683
    FORCOR:  cpu time      0.2196: real time      0.2197
    OFIELD:  cpu time      0.0004: real time      0.0003
    FORVDW:  cpu time      0.0019: real time      0.0019

  FORCE on cell =-STRESS in cart. coord.  units (eV):
  Direction    XX          YY          ZZ          XY          YZ          ZX
  --------------------------------------------------------------------------------------
  Alpha Z     1.37723     1.37723     1.37723
  Ewald    1731.37215   677.03481  -655.82569    -3.56807   -64.41230   -12.32239
  Hartree  2857.76930  1948.24792   927.94574    -3.23676   -48.09905    -9.77386
  E(xc)    -253.63542  -254.11381  -254.59084    -0.00136    -0.02513    -0.00531
  Local   -5219.99913 -3253.17422  -914.34315     6.83995   111.76034    22.03100
  n-local   -46.25891   -49.32986   -45.42342    -0.01536     0.20737     0.00696
  augment   381.62534   382.00211   384.99502    -0.00141     0.15710     0.01926
  Kinetic   546.78501   546.36388   555.78855    -0.01072     0.49532     0.05123
  Fock        0.00000     0.00000     0.00000     0.00000     0.00000     0.00000
  vdW        -0.01011    -0.00099    -0.00017     0.00003     0.00004     0.00005
  -------------------------------------------------------------------------------------
  Total      -0.97455    -1.59293    -0.07673     0.00631     0.08369     0.00695
  in kB      -0.15801    -0.25827    -0.01244     0.00102     0.01357     0.00113
  external pressure =       -0.14 kB  Pullay stress =        0.00 kB


 VOLUME and BASIS-vectors are now :
 -----------------------------------------------------------------------------
  energy-cutoff  :      520.00
  volume of cell :     9881.61
      direct lattice vectors                 reciprocal lattice vectors
    21.138852197  0.000000000  0.000000000     0.047306258  0.000000000  0.000000000
     0.000000000 21.138852197  0.000000000     0.000000000  0.047306258  0.000000000
     0.000000000  0.000000000 22.113885220     0.000000000  0.000000000  0.045220457

  length of vectors
    21.138852197 21.138852197 22.113885220     0.047306258  0.047306258  0.045220457


 FORCES acting on ions:
    Electron-Ion                     Ewald-Force                    Non-Local-Force
 -----------------------------------------------------------------------------------------------
   0.481E+03 -.328E+01 -.440E+02   -.474E+03 0.321E+01 0.428E+02   -.667E+01 0.706E-01 0.104E+01
   0.183E+01 0.477E+03 0.160E+02   -.178E+01 -.469E+03 -.158E+02   -.549E-01 -.756E+01 -.161E+00
   -.125E+01 -.473E+03 0.658E+02   0.121E+01 0.465E+03 -.647E+02   0.382E-01 0.751E+01 -.947E+00
   -.482E+03 -.609E+00 -.386E+02   0.475E+03 0.564E+00 0.376E+02   0.668E+01 0.436E-01 0.949E+00
 -----------------------------------------------------------------------------------------------
   -.290E-02 -.606E-01 -.874E+00   0.568E-13 0.568E-13 -.355E-14   -.953E-02 0.559E-01 0.878E+00


 POSITION                                       TOTAL-FORCE (eV/Angst)
 -----------------------------------------------------------------------------------
      6.03778     10.68115     13.92861         0.200948      0.006603     -0.081461
      8.40302      9.32878     13.74873        -0.002814      0.582278      0.055144
      8.40867     12.00204     13.60841         0.000531     -0.588725      0.119615
     10.77601     10.66514     13.90267        -0.198666     -0.000156     -0.093299
 -----------------------------------------------------------------------------------
    total drift:                               -0.012436     -0.004744      0.003753


--------------------------------------------------------------------------------------------------------



  FREE ENERGIE OF THE ION-ELECTRON SYSTEM (eV)
  ---------------------------------------------------
  free  energy   TOTEN  =       -78.77969500 eV

  energy  without entropy=      -78.77969500  energy(sigma->0) =      -78.77969500



--------------------------------------------------------------------------------------------------------


    POTLOK:  cpu time      0.9815: real time      0.9816


--------------------------------------------------------------------------------------------------------


     LOOP+:  cpu time     72.3025: real time     72.3816
    4ORBIT:  cpu time      0.0000: real time      0.0000

 total amount of memory used by VASP MPI-rank0   153549. kBytes
=======================================================================

   base      :      30000. kBytes
   nonlr-proj:       1303. kBytes
   fftplans  :      35474. kBytes
   grid      :      83562. kBytes
   one-center:         15. kBytes
   wavefun   :       3195. kBytes

  
  
 General timing and accounting informations for this job:
 ========================================================
  
                  Total CPU time used (sec):       95.481
                            User time (sec):       93.566
                          System time (sec):        1.916
                         Elapsed time (sec):       97.360
  
                   Maximum memory used (kb):      475788.
                   Average memory used (kb):          N/A
  
                          Minor page faults:        30178
                          Major page faults:            0
                 Voluntary context switches:         9897
