 vasp.6.4.0 14Feb23 (build Dec 05 2023 14:15:48) complex                        
  
 executed on             LinuxIFC date 2023.12.12  09:45:49
 running  512 mpi-ranks, with    1 threads/rank, on   32 nodes
 distrk:  each k-point on  512 cores,    1 groups
 distr:  one band on NCORE=  16 cores,   32 groups


--------------------------------------------------------------------------------------------------------


 INCAR:
   SYSTEM = MgO-rocksalt
   ISMEAR = 0
   SIGMA = 0.05
   EDIFF = 1E-6
   ALGO = ALL
   ISTART = 2
   IBRION = -1
   NSW = 0
   ISYM = 0
   METAGGA = M06L
   ENCUT = 520
   PREC = Accurate
   LASPH = .TRUE.
   LREAL = Auto
   ISPIN = 1
   NELM = 2000
   NELMIN = 8
   NCORE = 16
   LWAVE = .FALSE.
   LCHARG = .FALSE.

 POTCAR:    PAW_PBE Ag 02Apr2005                  
 POTCAR:    PAW_PBE Ag 02Apr2005                  
   SHA256 =  6550cfa3543261e132c169e1b98a529204624d72be14e2da2e0242bcb74a174d Ag/POTCAR             
   COPYR  = (c) Copyright 02Apr2005 Georg Kresse                                                    
   COPYR  = This file is part of the software VASP. Any use, copying, and all other rights are regul
   COPYR  = If you do not have a valid VASP license, you may not use, copy or distribute this file. 
   VRHFIN =Ag : s1 d10                                                                              
   LEXCH  = PE                                                                                      
   EATOM  =  1037.2675 eV,   76.2370 Ry                                                             
                                                                                                    
   TITEL  = PAW_PBE Ag 02Apr2005                                                                    
   LULTRA =        F    use ultrasoft PP ?                                                          
   IUNSCR =        1    unscreen: 0-lin 1-nonlin 2-no                                               
   RPACOR =    2.000    partial core radius                                                         
   POMASS =  107.868; ZVAL   =   11.000    mass and valenz                                          
   RCORE  =    2.500    outmost cutoff radius                                                       
   RWIGS  =    2.840; RWIGS  =    1.503    wigner-seitz radius (au A)                               
   ENMAX  =  249.844; ENMIN  =  187.383 eV                                                          
   ICORE  =        3    local potential                                                             
   LCOR   =        T    correct aug charges                                                         
   LPAW   =        T    paw PP                                                                      
   EAUG   =  412.496                                                                                
   DEXC   =    0.000                                                                                
   RMAX   =    2.560    core radius for proj-oper                                                   
   RAUG   =    1.300    factor for augmentation sphere                                              
   RDEP   =    2.576    radius for radial grids                                                     
   RDEPT  =    2.072    core radius for aug-charge                                                  
                                                                                                    
   Atomic configuration                                                                             
   12 entries                                                                                       
     n  l   j            E        occ.                                                              
     1  0  0.50    -25324.9161   2.0000                                                             
     2  0  0.50     -3728.5341   2.0000                                                             
     2  1  1.50     -3344.0404   6.0000                                                             
     3  0  0.50      -683.5581   2.0000                                                             
     3  1  1.50      -557.3225   6.0000                                                             
     3  2  2.50      -358.3853  10.0000                                                             
     4  0  0.50       -95.0341   2.0000                                                             
     4  1  1.50       -58.5511   6.0000                                                             
     4  2  2.50        -7.4440  10.0000                                                             
     5  0  0.50        -4.4045   1.0000                                                             
     5  1  0.50        -1.3606   0.0000                                                             
     4  3  2.50        -1.3606   0.0000                                                             
   Description                                                                                      
     l       E           TYP  RCUT    TYP  RCUT                                                     
     2     -7.4439781     23  2.400                                                                 
     2     -8.8045607     23  2.400                                                                 
     0     -4.4044681     23  2.400                                                                 
     0      1.9520038     23  2.400                                                                 
     1     -1.3605826     23  2.500                                                                 
     1     27.2116520     23  2.500                                                                 
     3     -4.0817478     23  2.400                                                                 
  local pseudopotential read in
  partial core-charges read in
  partial kinetic energy density read in
  atomic valenz-charges read in
  non local Contribution for L=           2  read in
    real space projection operators read in
  non local Contribution for L=           2  read in
    real space projection operators read in
  non local Contribution for L=           0  read in
    real space projection operators read in
  non local Contribution for L=           0  read in
    real space projection operators read in
  non local Contribution for L=           1  read in
    real space projection operators read in
  non local Contribution for L=           1  read in
    real space projection operators read in
    PAW grid and wavefunctions read in
 
   number of l-projection  operators is LMAX  =           6
   number of lm-projection operators is LMMAX =          18
 
 -----------------------------------------------------------------------------
|                                                                             |
|               ----> ADVICE to this user running VASP <----                  |
|                                                                             |
|     You have a (more or less) 'small supercell' and for smaller cells       |
|     it is recommended to use the reciprocal-space projection scheme!        |
|     The real-space optimization is not efficient for small cells and it     |
|     is also less accurate ...                                               |
|     Therefore, set LREAL=.FALSE. in the INCAR file.                         |
|                                                                             |
 -----------------------------------------------------------------------------

 Optimization of the real space projectors (new method)

 maximal supplied QI-value         = 15.12
 optimisation between [QCUT,QGAM] = [ 11.64, 23.28] = [ 37.95,151.78] Ry 
 Optimized for a Real-space Cutoff    1.45 Angstroem

   l    n(q)    QCUT    max X(q) W(low)/X(q) W(high)/X(q)  e(spline) 
   2      9    11.641    53.897    0.22E-03    0.42E-04    0.28E-06
   2      9    11.641    52.416    0.23E-03    0.44E-04    0.29E-06
   0     10    11.641   122.045    0.51E-04    0.25E-04    0.16E-06
   0     10    11.641    73.629    0.49E-04    0.24E-04    0.16E-06
   1     10    11.641    15.255    0.99E-04    0.55E-04    0.11E-06
   1     10    11.641     9.562    0.81E-04    0.47E-04    0.95E-07
  PAW_PBE Ag 02Apr2005                  :
 energy of atom  1       EATOM=-1037.2675
 kinetic energy error for atom=    0.0047 (will be added to EATOM!!)
 
 
 POSCAR: Ag
  positions in direct lattice
  No initial velocities read in

 METAGGA = M06L                                        LMAXTAU =  6    LMIXTAU =  F

 exchange correlation table for  LEXCH =        8
   RHO(1)=    0.500       N(1)  =     2000
   RHO(2)=  100.500       N(2)  =     4000
 


--------------------------------------------------------------------------------------------------------


 ion  position               nearest neighbor table
   1  0.493  0.407  0.638-   2 2.57
   2  0.407  0.493  0.638-   1 2.57
 

IMPORTANT INFORMATION: All symmetrisations will be switched off!
NOSYMM: (Re-)initialisation of all symmetry stuff for point group C_1.


----------------------------------------------------------------------------------------

                                     Primitive cell                                     

  volume of cell :    9881.6133

  direct lattice vectors                    reciprocal lattice vectors
    21.138852197  0.000000000  0.000000000     0.047306258  0.000000000  0.000000000
     0.000000000 21.138852197  0.000000000     0.000000000  0.047306258  0.000000000
     0.000000000  0.000000000 22.113885220     0.000000000  0.000000000  0.045220457

  length of vectors
    21.138852197 21.138852197 22.113885220     0.047306258  0.047306258  0.045220457

  position of ions in fractional coordinates (direct lattice)
     0.492981444  0.407018562  0.637532147
     0.407018532  0.492981474  0.637532147

  ion indices of the primitive-cell ions
   primitive index   ion index
                 1           1
                 2           2

----------------------------------------------------------------------------------------

 
 
 KPOINTS: KPOINTS created by Atomic Simulation Env

Automatic generation of k-mesh.
 Grid dimensions read from file:
 generate k-points for:    1    1    1

 Generating k-lattice:

  Cartesian coordinates                     Fractional coordinates (reciprocal lattice)
     0.047306258  0.000000000  0.000000000     1.000000000  0.000000000  0.000000000
     0.000000000  0.047306258  0.000000000     0.000000000  1.000000000  0.000000000
     0.000000000  0.000000000  0.045220457     0.000000000  0.000000000  1.000000000

  Length of vectors
     0.047306258  0.047306258  0.045220457

  Shift w.r.t. Gamma in fractional coordinates (k-lattice)
     0.000000000  0.000000000  0.000000000

 
 Subroutine IBZKPT returns following result:
 ===========================================
 
 Found      1 irreducible k-points:
 
 Following reciprocal coordinates:
            Coordinates               Weight
  0.000000  0.000000  0.000000      1.000000
 
 Following cartesian coordinates:
            Coordinates               Weight
  0.000000  0.000000  0.000000      1.000000
 


--------------------------------------------------------------------------------------------------------




 Dimension of arrays:
   k-points           NKPTS =      1   k-points in BZ     NKDIM =      1   number of bands    NBANDS=     32
   number of dos      NEDOS =    301   number of ions     NIONS =      2
   non local maximal  LDIM  =      6   non local SUM 2l+1 LMDIM =     18
   total plane-waves  NPLWV = ******
   max r-space proj   IRMAX =   5559   max aug-charges    IRDMAX=  21597
   dimension x,y,z NGX =   160 NGY =  160 NGZ =  168
   dimension x,y,z NGXF=   320 NGYF=  320 NGZF=  336
   support grid    NGXF=   320 NGYF=  320 NGZF=  336
   ions per type =               2
   NGX,Y,Z   is equivalent  to a cutoff of  12.58, 12.58, 12.63 a.u.
   NGXF,Y,Z  is equivalent  to a cutoff of  25.17, 25.17, 25.26 a.u.

 SYSTEM =  MgO-rocksalt                            
 POSCAR =  Ag                                      

 Startparameter for this run:
   NWRITE =      2    write-flag & timer
   PREC   = accura    normal or accurate (medium, high low for compatibility)
   ISTART =      2    job   : 0-new  1-cont  2-samecut
   ICHARG =      0    charge: 1-file 2-atom 10-const
   ISPIN  =      1    spin polarized calculation?
   LNONCOLLINEAR =      F non collinear calculations
   LSORBIT =      F    spin-orbit coupling
   INIWAV =      1    electr: 0-lowe 1-rand  2-diag
   LASPH  =      T    aspherical Exc in radial PAW
 Electronic Relaxation 1
   ENCUT  =  520.0 eV  38.22 Ry    6.18 a.u.  39.30 39.30 41.12*2*pi/ulx,y,z
   ENINI  =  520.0     initial cutoff
   ENAUG  =  412.5 eV  augmentation charge cutoff
   NELM   =   2000;   NELMIN=  8; NELMDL=  0     # of ELM steps 
   EDIFF  = 0.1E-05   stopping-criterion for ELM
   LREAL  =      T    real-space projection
   NLSPLINE    = F    spline interpolate recip. space projectors
   LCOMPAT=      F    compatible to vasp.4.4
   GGA_COMPAT  = T    GGA compatible to vasp.4.4-vasp.4.6
   LMAXPAW     = -100 max onsite density
   LMAXMIX     =    2 max onsite mixed and CHGCAR
   VOSKOWN=      0    Vosko Wilk Nusair interpolation
   ROPT   =   -0.00025
 Ionic relaxation
   EDIFFG = 0.1E-04   stopping-criterion for IOM
   NSW    =      0    number of steps for IOM
   NBLOCK =      1;   KBLOCK =      1    inner block; outer block 
   IBRION =     -1    ionic relax: 0-MD 1-quasi-New 2-CG
   NFREE  =      0    steps in history (QN), initial steepest desc. (CG)
   ISIF   =      2    stress and relaxation
   IWAVPR =     10    prediction:  0-non 1-charg 2-wave 3-comb
   ISYM   =      0    0-nonsym 1-usesym 2-fastsym
   LCORR  =      T    Harris-Foulkes like correction to forces

   POTIM  = 0.5000    time-step for ionic-motion
   TEIN   =    0.0    initial temperature
   TEBEG  =    0.0;   TEEND  =   0.0 temperature during run
   SMASS  =  -3.00    Nose mass-parameter (am)
   estimated Nose-frequenzy (Omega)   =  0.10E-29 period in steps = 0.13E+47 mass=  -0.102E-25a.u.
   SCALEE = 1.0000    scale energy and forces
   NPACO  =    256;   APACO  = 10.0  distance and # of slots for P.C.
   PSTRESS=    0.0 pullay stress

  Mass of Ions in am
   POMASS = 107.87
  Ionic Valenz
   ZVAL   =  11.00
  Atomic Wigner-Seitz radii
   RWIGS  =  -1.00
  virtual crystal weights 
   VCA    =   1.00
   NELECT =      22.0000    total number of electrons
   NUPDOWN=      -1.0000    fix difference up-down

 DOS related values:
   EMIN   =  10.00;   EMAX   =-10.00  energy-range for DOS
   EFERMI =   0.00;   METHOD = LEGACY      
   ISMEAR =     0;   SIGMA  =   0.05  broadening in eV -4-tet -1-fermi 0-gaus

 Electronic relaxation 2 (details)
   IALGO  =     58    algorithm
   LDIAG  =      T    sub-space diagonalisation (order eigenvalues)
   LSUBROT=      F    optimize rotation matrix (better conditioning)
   TURBO    =      0    0=normal 1=particle mesh
   IRESTART =      0    0=no restart 2=restart with 2 vectors
   NREBOOT  =      0    no. of reboots
   NMIN     =      0    reboot dimension
   EREF     =   0.00    reference energy to select bands
   IMIX   =      4    mixing-type and parameters
     AMIX     =   0.40;   BMIX     =  1.00
     AMIX_MAG =   1.60;   BMIX_MAG =  1.00
     AMIN     =   0.10
     WC   =   100.;   INIMIX=   1;  MIXPRE=   1;  MAXMIX= -45

 Intra band minimization:
   WEIMIN = 0.0000     energy-eigenvalue tresh-hold
   EBREAK =  0.78E-08  absolut break condition
   DEPER  =   0.30     relativ break condition  

   TIME   =   0.40     timestep for ELM

  volume/ion in A,a.u.               =    4940.81     33342.21
  Fermi-wavevector in a.u.,A,eV,Ry     =   0.213767  0.403960  0.621734  0.045696
  Thomas-Fermi vector in A             =   0.985879
 
 Write flags
   LWAVE        =      F    write WAVECAR
   LDOWNSAMPLE  =      F    k-point downsampling of WAVECAR
   LCHARG       =      F    write CHGCAR
   LVTOT        =      F    write LOCPOT, total local potential
   LVHAR        =      F    write LOCPOT, Hartree potential only
   LELF         =      F    write electronic localiz. function (ELF)
   LORBIT       =      0    0 simple, 1 ext, 2 COOP (PROOUT), +10 PAW based schemes


 Dipole corrections
   LMONO  =      F    monopole corrections only (constant potential shift)
   LDIPOL =      F    correct potential (dipole corrections)
   IDIPOL =      0    1-x, 2-y, 3-z, 4-all directions 
   EPSILON=  1.0000000 bulk dielectric constant

 Exchange correlation treatment:
   GGA     =    --    GGA type
   LEXCH   =     8    internal setting for exchange type
   LIBXC   =     F    Libxc                    
   VOSKOWN =     0    Vosko Wilk Nusair interpolation
   LHFCALC =     F    Hartree Fock is set to
   LHFONE  =     F    Hartree Fock one center treatment
   AEXX    =    0.0000 exact exchange contribution

 Linear response parameters
   LEPSILON=     F    determine dielectric tensor
   LRPA    =     F    only Hartree local field effects (RPA)
   LNABLA  =     F    use nabla operator in PAW spheres
   LVEL    =     F    velocity operator in full k-point grid
   CSHIFT  =0.1000    complex shift for real part using Kramers Kronig
   OMEGAMAX=  -1.0    maximum frequency
   DEG_THRESHOLD= 0.2000000E-02 threshold for treating states as degnerate
   RTIME   =   -0.100 relaxation time in fs
  (WPLASMAI=    0.000 imaginary part of plasma frequency in eV, 0.658/RTIME)
   DFIELD  = 0.0000000 0.0000000 0.0000000 field for delta impulse in time
 
  Optional k-point grid parameters
   LKPOINTS_OPT  =     F    use optional k-point grid
   KPOINTS_OPT_MODE=     1    mode for optional k-point grid
 
 Orbital magnetization related:
   ORBITALMAG=     F  switch on orbital magnetization
   LCHIMAG   =     F  perturbation theory with respect to B field
   DQ        =  0.001000  dq finite difference perturbation B field
   LLRAUG    =     F  two centre corrections for induced B field
   LBONE     =     F  B-component reconstruction in AE one-centre
   LVGVCALC  =     T  calculate vGv susceptibility
   LVGVAPPL  =     F  apply vGv susceptibility instead of pGv for G=0

 Random number generation:
   RANDOM_GENERATOR = DEFAULT
   PCG_SEED         = not used


--------------------------------------------------------------------------------------------------------


 Static calculation
 charge density and potential will be updated during run
 non-spin polarized calculation
 Conjugate gradient for all bands (Freysoldt, et al. PRB 79, 241103 (2009))
 preconditioned conjugated gradient                                        
 perform sub-space diagonalisation
    before iterative eigenvector-optimisation
 modified Broyden-mixing scheme, WC =      100.0
 initial mixing is a Kerker type mixing with AMIX =  0.4000 and BMIX =      1.0000
 Hartree-type preconditioning will be used
 using additional bands           21
 real space projection scheme for non local part
 use partial core corrections
 no Harris-corrections to forces 
 use gradient corrections 
 use of overlap-Matrix (Vanderbilt PP)
 Gauss-broadening in eV      SIGMA  =   0.05


--------------------------------------------------------------------------------------------------------


  energy-cutoff  :      520.00
  volume of cell :     9881.61
      direct lattice vectors                 reciprocal lattice vectors
    21.138852197  0.000000000  0.000000000     0.047306258  0.000000000  0.000000000
     0.000000000 21.138852197  0.000000000     0.000000000  0.047306258  0.000000000
     0.000000000  0.000000000 22.113885220     0.000000000  0.000000000  0.045220457

  length of vectors
    21.138852197 21.138852197 22.113885220     0.047306258  0.047306258  0.045220457


 
 old parameters found on file WAVECAR:
  energy-cutoff  :      520.00
  volume of cell :     9881.61
      direct lattice vectors                 reciprocal lattice vectors
    21.138852197  0.000000000  0.000000000     0.047306258  0.000000000  0.000000000
     0.000000000 21.138852197  0.000000000     0.000000000  0.047306258  0.000000000
     0.000000000  0.000000000 22.113885220     0.000000000  0.000000000  0.045220457

  length of vectors

 
 k-points in units of 2pi/SCALE and weight: KPOINTS created by Atomic Simulation Env
   0.00000000  0.00000000  0.00000000       1.000
 
 k-points in reciprocal lattice and weights: KPOINTS created by Atomic Simulation Env
   0.00000000  0.00000000  0.00000000       1.000
 
 position of ions in fractional coordinates (direct lattice) 
   0.49298144  0.40701856  0.63753215
   0.40701853  0.49298147  0.63753215
 
 position of ions in cartesian coordinates  (Angst):
  10.42106188  8.60390523 14.09831271
   8.60390459 10.42106252 14.09831271
 


--------------------------------------------------------------------------------------------------------


 k-point   1 :   0.0000 0.0000 0.0000  plane waves:  265979

 maximum and minimum number of plane-waves per node :     16635    16606

 maximum number of plane-waves:    265979
 maximum index in each direction: 
   IXMAX=   39   IYMAX=   39   IZMAX=   41
   IXMIN=  -39   IYMIN=  -39   IZMIN=  -41


 real space projection operators:
  total allocation   :       1502.44 KBytes
  max/ min on nodes  :        102.66         88.45


 parallel 3D FFT for wavefunctions:
    minimum data exchange during FFTs selected (reduces bandwidth)
 parallel 3D FFT for charge:
    minimum data exchange during FFTs selected (reduces bandwidth)


 total amount of memory used by VASP MPI-rank0    68034. kBytes
=======================================================================

   base      :      30000. kBytes
   nonlr-proj:        314. kBytes
   fftplans  :      11482. kBytes
   grid      :      25425. kBytes
   one-center:         15. kBytes
   wavefun   :        798. kBytes
 
     INWAV:  cpu time      1.4699: real time      1.5174
 Broyden mixing: mesh for mixing (old mesh)
   NGX = 79   NGY = 79   NGZ = 83
  (NGX  =320   NGY  =320   NGZ  =336)
  gives a total of 518003 points

 charge density for first step will be calculated from the start-wavefunctions


--------------------------------------------------------------------------------------------------------


 Maximum index for non-local projection operator          365
 Maximum index for augmentation-charges            0 (set IRDMAX)


--------------------------------------------------------------------------------------------------------


 initial charge from wavefunction
 First call to EWALD:  gamma=   0.083
 Maximum number of real-space cells 3x 3x 3
 Maximum number of reciprocal cells 3x 3x 3

    FEWALD:  cpu time      0.0074: real time      0.0074


--------------------------------------- Ionic step        1  -------------------------------------------




--------------------------------------- Iteration      1(   1)  ---------------------------------------


    POTLOK:  cpu time      0.7454: real time      0.7466
    SETDIJ:  cpu time      4.3604: real time      4.3636
    TRIAL :  cpu time      0.4425: real time      0.4440
    CORREC:  cpu time      6.0169: real time      6.0223
    CHARGE:  cpu time      0.1204: real time      0.1201
    --------------------------------------------
      LOOP:  cpu time     11.6873: real time     11.6990

 eigenvalue-minimisations  :     0
 total energy-change (2. order) :-0.2967936E+02  (-0.2045479E+00)
 number of electron      22.0000001 magnetization 
 augmentation part       10.8079433 magnetization 

 Free energy of the ion-electron system (eV)
  ---------------------------------------------------
  alpha Z        PSCENC =         0.34430737
  Ewald energy   TEWEN  =       220.16056373
  -Hartree energ DENC   =     -2208.11879631
  -exchange      EXHF   =         0.00000000
  -V(xc)+E(xc)   XCENC  =         5.66985974
  PAW double counting   =      2056.85553917    -2011.57912627
  entropy T*S    EENTRO =        -0.00000000
  eigenvalues    EBANDS =      -167.53726899
  atomic energy  EATOM  =      2074.52556292
  ---------------------------------------------------
  free energy    TOTEN  =       -29.67935864 eV

  energy without entropy =      -29.67935864  energy(sigma->0) =      -29.67935864


--------------------------------------------------------------------------------------------------------




--------------------------------------- Iteration      1(   2)  ---------------------------------------


    POTLOK:  cpu time      0.8201: real time      0.8208
    SETDIJ:  cpu time      4.8783: real time      4.8822
    TRIAL :  cpu time      0.3691: real time      0.3700
    CORREC:  cpu time      6.0107: real time      6.0154
    CHARGE:  cpu time      0.1183: real time      0.1183
    --------------------------------------------
      LOOP:  cpu time     12.1999: real time     12.2178

 eigenvalue-minimisations  :     0
 total energy-change (2. order) :-0.2052765E+00  (-0.6595007E-01)
 number of electron      22.0000001 magnetization 
 augmentation part       10.8010731 magnetization 

 Free energy of the ion-electron system (eV)
  ---------------------------------------------------
  alpha Z        PSCENC =         0.34430737
  Ewald energy   TEWEN  =       220.16056373
  -Hartree energ DENC   =     -2224.26786181
  -exchange      EXHF   =         0.00000000
  -V(xc)+E(xc)   XCENC  =         6.55641360
  PAW double counting   =      2116.19108200    -2071.51107827
  entropy T*S    EENTRO =        -0.00000000
  eigenvalues    EBANDS =      -151.88362466
  atomic energy  EATOM  =      2074.52556292
  ---------------------------------------------------
  free energy    TOTEN  =       -29.88463512 eV

  energy without entropy =      -29.88463512  energy(sigma->0) =      -29.88463512


--------------------------------------------------------------------------------------------------------




--------------------------------------- Iteration      1(   3)  ---------------------------------------


    POTLOK:  cpu time      0.8362: real time      0.8370
    SETDIJ:  cpu time      4.8798: real time      4.8847
    TRIAL :  cpu time      0.3792: real time      0.3792
    CORREC:  cpu time      6.0123: real time      6.0175
    CHARGE:  cpu time      0.1256: real time      0.1255
    --------------------------------------------
      LOOP:  cpu time     12.2359: real time     12.2551

 eigenvalue-minimisations  :     0
 total energy-change (2. order) :-0.6756910E-01  (-0.1413602E-01)
 number of electron      22.0000001 magnetization 
 augmentation part       10.7946372 magnetization 

 Free energy of the ion-electron system (eV)
  ---------------------------------------------------
  alpha Z        PSCENC =         0.34430737
  Ewald energy   TEWEN  =       220.16056373
  -Hartree energ DENC   =     -2219.24969878
  -exchange      EXHF   =         0.00000000
  -V(xc)+E(xc)   XCENC  =         6.29227340
  PAW double counting   =      2156.98543139    -2112.28005654
  entropy T*S    EENTRO =        -0.00000000
  eigenvalues    EBANDS =      -156.73058772
  atomic energy  EATOM  =      2074.52556292
  ---------------------------------------------------
  free energy    TOTEN  =       -29.95220422 eV

  energy without entropy =      -29.95220422  energy(sigma->0) =      -29.95220422


--------------------------------------------------------------------------------------------------------




--------------------------------------- Iteration      1(   4)  ---------------------------------------


    POTLOK:  cpu time      0.8243: real time      0.8249
    SETDIJ:  cpu time      4.8740: real time      4.8782
    TRIAL :  cpu time      0.3708: real time      0.3716
    CORREC:  cpu time      5.9781: real time      5.9832
    CHARGE:  cpu time      0.1180: real time      0.1180
    --------------------------------------------
      LOOP:  cpu time     12.1681: real time     12.1866

 eigenvalue-minimisations  :     0
 total energy-change (2. order) :-0.9784241E-02  (-0.9075358E-02)
 number of electron      22.0000001 magnetization 
 augmentation part       10.7923493 magnetization 

 Free energy of the ion-electron system (eV)
  ---------------------------------------------------
  alpha Z        PSCENC =         0.34430737
  Ewald energy   TEWEN  =       220.16056373
  -Hartree energ DENC   =     -2217.74091567
  -exchange      EXHF   =         0.00000000
  -V(xc)+E(xc)   XCENC  =         6.19960924
  PAW double counting   =      2173.10012101    -2128.37667475
  entropy T*S    EENTRO =        -0.00000000
  eigenvalues    EBANDS =      -158.17456231
  atomic energy  EATOM  =      2074.52556292
  ---------------------------------------------------
  free energy    TOTEN  =       -29.96198846 eV

  energy without entropy =      -29.96198846  energy(sigma->0) =      -29.96198846


--------------------------------------------------------------------------------------------------------




--------------------------------------- Iteration      1(   5)  ---------------------------------------


    POTLOK:  cpu time      0.8271: real time      0.8281
    SETDIJ:  cpu time      4.8851: real time      4.8891
    TRIAL :  cpu time      0.3683: real time      0.3684
    CORREC:  cpu time      5.9533: real time      5.9587
    CHARGE:  cpu time      0.1300: real time      0.1302
    --------------------------------------------
      LOOP:  cpu time     12.1753: real time     12.1861

 eigenvalue-minimisations  :     0
 total energy-change (2. order) :-0.6304285E-02  (-0.6347191E-02)
 number of electron      22.0000001 magnetization 
 augmentation part       10.7936971 magnetization 

 Free energy of the ion-electron system (eV)
  ---------------------------------------------------
  alpha Z        PSCENC =         0.34430737
  Ewald energy   TEWEN  =       220.16056373
  -Hartree energ DENC   =     -2217.36979812
  -exchange      EXHF   =         0.00000000
  -V(xc)+E(xc)   XCENC  =         6.16356771
  PAW double counting   =      2190.43888281    -2145.71812778
  entropy T*S    EENTRO =        -0.00000000
  eigenvalues    EBANDS =      -158.51325138
  atomic energy  EATOM  =      2074.52556292
  ---------------------------------------------------
  free energy    TOTEN  =       -29.96829275 eV

  energy without entropy =      -29.96829275  energy(sigma->0) =      -29.96829275


--------------------------------------------------------------------------------------------------------




--------------------------------------- Iteration      1(   6)  ---------------------------------------


    POTLOK:  cpu time      0.8466: real time      0.8470
    SETDIJ:  cpu time      4.8840: real time      4.8886
    TRIAL :  cpu time      0.3683: real time      0.3685
    CORREC:  cpu time      5.9482: real time      5.9537
    CHARGE:  cpu time      0.1187: real time      0.1187
    --------------------------------------------
      LOOP:  cpu time     12.1733: real time     12.1922

 eigenvalue-minimisations  :     0
 total energy-change (2. order) :-0.1453743E-02  (-0.3678207E-02)
 number of electron      22.0000001 magnetization 
 augmentation part       10.7967764 magnetization 

 Free energy of the ion-electron system (eV)
  ---------------------------------------------------
  alpha Z        PSCENC =         0.34430737
  Ewald energy   TEWEN  =       220.16056373
  -Hartree energ DENC   =     -2217.80810467
  -exchange      EXHF   =         0.00000000
  -V(xc)+E(xc)   XCENC  =         6.17291041
  PAW double counting   =      2206.88395316    -2162.18137733
  entropy T*S    EENTRO =        -0.00000000
  eigenvalues    EBANDS =      -158.06756207
  atomic energy  EATOM  =      2074.52556292
  ---------------------------------------------------
  free energy    TOTEN  =       -29.96974649 eV

  energy without entropy =      -29.96974649  energy(sigma->0) =      -29.96974649


--------------------------------------------------------------------------------------------------------




--------------------------------------- Iteration      1(   7)  ---------------------------------------


    POTLOK:  cpu time      0.7803: real time      0.7810
    SETDIJ:  cpu time      4.8786: real time      4.8825
    TRIAL :  cpu time      0.3678: real time      0.3687
    CORREC:  cpu time      5.9525: real time      5.9574
    CHARGE:  cpu time      0.1204: real time      0.1204
    --------------------------------------------
      LOOP:  cpu time     12.1024: real time     12.1203

 eigenvalue-minimisations  :     0
 total energy-change (2. order) :-0.1437008E-03  (-0.2836029E-02)
 number of electron      22.0000001 magnetization 
 augmentation part       10.8001080 magnetization 

 Free energy of the ion-electron system (eV)
  ---------------------------------------------------
  alpha Z        PSCENC =         0.34430737
  Ewald energy   TEWEN  =       220.16056373
  -Hartree energ DENC   =     -2218.61042428
  -exchange      EXHF   =         0.00000000
  -V(xc)+E(xc)   XCENC  =         6.20636662
  PAW double counting   =      2219.57110897    -2174.89141476
  entropy T*S    EENTRO =        -0.00000000
  eigenvalues    EBANDS =      -157.27596075
  atomic energy  EATOM  =      2074.52556292
  ---------------------------------------------------
  free energy    TOTEN  =       -29.96989019 eV

  energy without entropy =      -29.96989019  energy(sigma->0) =      -29.96989019


--------------------------------------------------------------------------------------------------------




--------------------------------------- Iteration      1(   8)  ---------------------------------------


    POTLOK:  cpu time      0.7557: real time      0.7561
    SETDIJ:  cpu time      4.8736: real time      4.8783
    TRIAL :  cpu time      0.3653: real time      0.3653
    CORREC:  cpu time      5.9896: real time      5.9949
    CHARGE:  cpu time      0.1186: real time      0.1187
    --------------------------------------------
      LOOP:  cpu time     12.1067: real time     12.1243

 eigenvalue-minimisations  :     0
 total energy-change (2. order) :-0.2489902E-03  (-0.2515622E-02)
 number of electron      22.0000001 magnetization 
 augmentation part       10.8031864 magnetization 

 Free energy of the ion-electron system (eV)
  ---------------------------------------------------
  alpha Z        PSCENC =         0.34430737
  Ewald energy   TEWEN  =       220.16056373
  -Hartree energ DENC   =     -2219.49867008
  -exchange      EXHF   =         0.00000000
  -V(xc)+E(xc)   XCENC  =         6.24649695
  PAW double counting   =      2229.99072686    -2185.33330507
  entropy T*S    EENTRO =        -0.00000000
  eigenvalues    EBANDS =      -156.40582185
  atomic energy  EATOM  =      2074.52556292
  ---------------------------------------------------
  free energy    TOTEN  =       -29.97013918 eV

  energy without entropy =      -29.97013918  energy(sigma->0) =      -29.97013918


--------------------------------------------------------------------------------------------------------




--------------------------------------- Iteration      1(   9)  ---------------------------------------


    POTLOK:  cpu time      0.7727: real time      0.7734
    SETDIJ:  cpu time      4.8793: real time      4.8834
    TRIAL :  cpu time      0.3675: real time      0.3683
    CORREC:  cpu time      5.9339: real time      5.9387
    CHARGE:  cpu time      0.1183: real time      0.1183
    --------------------------------------------
      LOOP:  cpu time     12.0746: real time     12.0937

 eigenvalue-minimisations  :     0
 total energy-change (2. order) :-0.5990084E-03  (-0.8851701E-02)
 number of electron      22.0000001 magnetization 
 augmentation part       10.8016099 magnetization 

 Free energy of the ion-electron system (eV)
  ---------------------------------------------------
  alpha Z        PSCENC =         0.34430737
  Ewald energy   TEWEN  =       220.16056373
  -Hartree energ DENC   =     -2220.39844536
  -exchange      EXHF   =         0.00000000
  -V(xc)+E(xc)   XCENC  =         6.28782086
  PAW double counting   =      2240.43447962    -2195.79811382
  entropy T*S    EENTRO =        -0.00000000
  eigenvalues    EBANDS =      -155.52691350
  atomic energy  EATOM  =      2074.52556292
  ---------------------------------------------------
  free energy    TOTEN  =       -29.97073819 eV

  energy without entropy =      -29.97073819  energy(sigma->0) =      -29.97073819


--------------------------------------------------------------------------------------------------------




--------------------------------------- Iteration      1(  10)  ---------------------------------------


    POTLOK:  cpu time      0.7773: real time      0.7782
    SETDIJ:  cpu time      4.8757: real time      4.8803
    TRIAL :  cpu time      0.3678: real time      0.3678
    CORREC:  cpu time      6.0131: real time      6.0185
    CHARGE:  cpu time      0.1244: real time      0.1244
    --------------------------------------------
      LOOP:  cpu time     12.1617: real time     12.1802

 eigenvalue-minimisations  :     0
 total energy-change (2. order) :-0.1894121E-03  (-0.4287844E-02)
 number of electron      22.0000001 magnetization 
 augmentation part       10.7990545 magnetization 

 Free energy of the ion-electron system (eV)
  ---------------------------------------------------
  alpha Z        PSCENC =         0.34430737
  Ewald energy   TEWEN  =       220.16056373
  -Hartree energ DENC   =     -2220.19219516
  -exchange      EXHF   =         0.00000000
  -V(xc)+E(xc)   XCENC  =         6.27645694
  PAW double counting   =      2239.97675277    -2195.33307348
  entropy T*S    EENTRO =        -0.00000000
  eigenvalues    EBANDS =      -155.72930269
  atomic energy  EATOM  =      2074.52556292
  ---------------------------------------------------
  free energy    TOTEN  =       -29.97092760 eV

  energy without entropy =      -29.97092760  energy(sigma->0) =      -29.97092760


--------------------------------------------------------------------------------------------------------




--------------------------------------- Iteration      1(  11)  ---------------------------------------


    POTLOK:  cpu time      0.7679: real time      0.7686
    SETDIJ:  cpu time      4.8986: real time      4.9052
    TRIAL :  cpu time      0.3676: real time      0.3683
    CORREC:  cpu time      5.9250: real time      5.9294
    CHARGE:  cpu time      0.1181: real time      0.1180
    --------------------------------------------
      LOOP:  cpu time     12.0804: real time     12.1002

 eigenvalue-minimisations  :     0
 total energy-change (2. order) :-0.3077483E-02  (-0.4168417E-02)
 number of electron      22.0000001 magnetization 
 augmentation part       10.7965582 magnetization 

 Free energy of the ion-electron system (eV)
  ---------------------------------------------------
  alpha Z        PSCENC =         0.34430737
  Ewald energy   TEWEN  =       220.16056373
  -Hartree energ DENC   =     -2219.87327046
  -exchange      EXHF   =         0.00000000
  -V(xc)+E(xc)   XCENC  =         6.25869873
  PAW double counting   =      2239.22471223    -2194.56900910
  entropy T*S    EENTRO =        -0.00000000
  eigenvalues    EBANDS =      -156.04557051
  atomic energy  EATOM  =      2074.52556292
  ---------------------------------------------------
  free energy    TOTEN  =       -29.97400508 eV

  energy without entropy =      -29.97400508  energy(sigma->0) =      -29.97400508


--------------------------------------------------------------------------------------------------------




--------------------------------------- Iteration      1(  12)  ---------------------------------------


    POTLOK:  cpu time      0.7735: real time      0.7743
    SETDIJ:  cpu time      4.8781: real time      4.8827
    TRIAL :  cpu time      0.3724: real time      0.3723
    CORREC:  cpu time      5.9683: real time      5.9732
    CHARGE:  cpu time      0.1257: real time      0.1257
    --------------------------------------------
      LOOP:  cpu time     12.1241: real time     12.1426

 eigenvalue-minimisations  :     0
 total energy-change (2. order) :-0.2393365E-02  (-0.2911055E-02)
 number of electron      22.0000001 magnetization 
 augmentation part       10.7948647 magnetization 

 Free energy of the ion-electron system (eV)
  ---------------------------------------------------
  alpha Z        PSCENC =         0.34430737
  Ewald energy   TEWEN  =       220.16056373
  -Hartree energ DENC   =     -2219.58488309
  -exchange      EXHF   =         0.00000000
  -V(xc)+E(xc)   XCENC  =         6.24203967
  PAW double counting   =      2238.49351605    -2193.82584096
  entropy T*S    EENTRO =        -0.00000000
  eigenvalues    EBANDS =      -156.33166413
  atomic energy  EATOM  =      2074.52556292
  ---------------------------------------------------
  free energy    TOTEN  =       -29.97639845 eV

  energy without entropy =      -29.97639845  energy(sigma->0) =      -29.97639845


--------------------------------------------------------------------------------------------------------




--------------------------------------- Iteration      1(  13)  ---------------------------------------


    POTLOK:  cpu time      0.7750: real time      0.7756
    SETDIJ:  cpu time      4.8852: real time      4.8891
    TRIAL :  cpu time      0.3668: real time      0.3677
    CORREC:  cpu time      5.9705: real time      5.9751
    CHARGE:  cpu time      0.1189: real time      0.1195
    --------------------------------------------
      LOOP:  cpu time     12.1240: real time     12.1413

 eigenvalue-minimisations  :     0
 total energy-change (2. order) :-0.1057369E-02  (-0.5438662E-02)
 number of electron      22.0000001 magnetization 
 augmentation part       10.7953588 magnetization 

 Free energy of the ion-electron system (eV)
  ---------------------------------------------------
  alpha Z        PSCENC =         0.34430737
  Ewald energy   TEWEN  =       220.16056373
  -Hartree energ DENC   =     -2219.42153502
  -exchange      EXHF   =         0.00000000
  -V(xc)+E(xc)   XCENC  =         6.23195939
  PAW double counting   =      2238.03667571    -2193.36071399
  entropy T*S    EENTRO =        -0.00000000
  eigenvalues    EBANDS =      -156.49427593
  atomic energy  EATOM  =      2074.52556292
  ---------------------------------------------------
  free energy    TOTEN  =       -29.97745582 eV

  energy without entropy =      -29.97745582  energy(sigma->0) =      -29.97745582


--------------------------------------------------------------------------------------------------------




--------------------------------------- Iteration      1(  14)  ---------------------------------------


    POTLOK:  cpu time      0.7848: real time      0.7843
    SETDIJ:  cpu time      4.8848: real time      4.8895
    TRIAL :  cpu time      0.3650: real time      0.3651
    CORREC:  cpu time      5.9509: real time      5.9562
    CHARGE:  cpu time      0.1260: real time      0.1260
    --------------------------------------------
      LOOP:  cpu time     12.1141: real time     12.1315

 eigenvalue-minimisations  :     0
 total energy-change (2. order) : 0.1432226E-02  (-0.2469777E-02)
 number of electron      22.0000001 magnetization 
 augmentation part       10.7961495 magnetization 

 Free energy of the ion-electron system (eV)
  ---------------------------------------------------
  alpha Z        PSCENC =         0.34430737
  Ewald energy   TEWEN  =       220.16056373
  -Hartree energ DENC   =     -2219.51868874
  -exchange      EXHF   =         0.00000000
  -V(xc)+E(xc)   XCENC  =         6.23655998
  PAW double counting   =      2238.24675593    -2193.57293593
  entropy T*S    EENTRO =        -0.00000000
  eigenvalues    EBANDS =      -156.39814885
  atomic energy  EATOM  =      2074.52556292
  ---------------------------------------------------
  free energy    TOTEN  =       -29.97602359 eV

  energy without entropy =      -29.97602359  energy(sigma->0) =      -29.97602359


--------------------------------------------------------------------------------------------------------




--------------------------------------- Iteration      1(  15)  ---------------------------------------


    POTLOK:  cpu time      0.8861: real time      0.8869
    SETDIJ:  cpu time      4.8883: real time      4.8930
    TRIAL :  cpu time      0.3722: real time      0.3721
    CORREC:  cpu time      5.9761: real time      5.9815
    CHARGE:  cpu time      0.1245: real time      0.1244
    --------------------------------------------
      LOOP:  cpu time     12.2499: real time     12.2690

 eigenvalue-minimisations  :     0
 total energy-change (2. order) :-0.1083260E-02  (-0.1936568E-02)
 number of electron      22.0000001 magnetization 
 augmentation part       10.7970972 magnetization 

 Free energy of the ion-electron system (eV)
  ---------------------------------------------------
  alpha Z        PSCENC =         0.34430737
  Ewald energy   TEWEN  =       220.16056373
  -Hartree energ DENC   =     -2219.67930538
  -exchange      EXHF   =         0.00000000
  -V(xc)+E(xc)   XCENC  =         6.24430009
  PAW double counting   =      2238.62875575    -2193.95845652
  entropy T*S    EENTRO =        -0.00000000
  eigenvalues    EBANDS =      -156.24283481
  atomic energy  EATOM  =      2074.52556292
  ---------------------------------------------------
  free energy    TOTEN  =       -29.97710685 eV

  energy without entropy =      -29.97710685  energy(sigma->0) =      -29.97710685


--------------------------------------------------------------------------------------------------------




--------------------------------------- Iteration      1(  16)  ---------------------------------------


    POTLOK:  cpu time      0.7985: real time      0.7991
    SETDIJ:  cpu time      4.8901: real time      4.8942
    TRIAL :  cpu time      0.3748: real time      0.3755
    CORREC:  cpu time      6.0297: real time      6.0335
    CHARGE:  cpu time      0.1252: real time      0.1251
    --------------------------------------------
      LOOP:  cpu time     12.2401: real time     12.2571

 eigenvalue-minimisations  :     0
 total energy-change (2. order) : 0.2265482E-03  (-0.3189977E-02)
 number of electron      22.0000001 magnetization 
 augmentation part       10.7970881 magnetization 

 Free energy of the ion-electron system (eV)
  ---------------------------------------------------
  alpha Z        PSCENC =         0.34430737
  Ewald energy   TEWEN  =       220.16056373
  -Hartree energ DENC   =     -2219.87727629
  -exchange      EXHF   =         0.00000000
  -V(xc)+E(xc)   XCENC  =         6.25238700
  PAW double counting   =      2239.15347078    -2194.48737899
  entropy T*S    EENTRO =        -0.00000000
  eigenvalues    EBANDS =      -156.04851682
  atomic energy  EATOM  =      2074.52556292
  ---------------------------------------------------
  free energy    TOTEN  =       -29.97688030 eV

  energy without entropy =      -29.97688030  energy(sigma->0) =      -29.97688030


--------------------------------------------------------------------------------------------------------




--------------------------------------- Iteration      1(  17)  ---------------------------------------


    POTLOK:  cpu time      0.7858: real time      0.7863
    SETDIJ:  cpu time      4.8809: real time      4.8856
    TRIAL :  cpu time      0.3671: real time      0.3670
    CORREC:  cpu time      5.9357: real time      5.9412
    CHARGE:  cpu time      0.1197: real time      0.1197
    --------------------------------------------
      LOOP:  cpu time     12.0919: real time     12.1105

 eigenvalue-minimisations  :     0
 total energy-change (2. order) : 0.1363192E-02  (-0.1358707E-02)
 number of electron      22.0000001 magnetization 
 augmentation part       10.7970540 magnetization 

 Free energy of the ion-electron system (eV)
  ---------------------------------------------------
  alpha Z        PSCENC =         0.34430737
  Ewald energy   TEWEN  =       220.16056373
  -Hartree energ DENC   =     -2219.88511071
  -exchange      EXHF   =         0.00000000
  -V(xc)+E(xc)   XCENC  =         6.25263019
  PAW double counting   =      2239.26431584    -2194.59822093
  entropy T*S    EENTRO =        -0.00000000
  eigenvalues    EBANDS =      -156.03956552
  atomic energy  EATOM  =      2074.52556292
  ---------------------------------------------------
  free energy    TOTEN  =       -29.97551711 eV

  energy without entropy =      -29.97551711  energy(sigma->0) =      -29.97551711


--------------------------------------------------------------------------------------------------------




--------------------------------------- Iteration      1(  18)  ---------------------------------------


    POTLOK:  cpu time      0.8848: real time      0.8856
    SETDIJ:  cpu time      4.8779: real time      4.8816
    TRIAL :  cpu time      0.3672: real time      0.3682
    CORREC:  cpu time      5.9421: real time      5.9466
    CHARGE:  cpu time      0.1239: real time      0.1248
    --------------------------------------------
      LOOP:  cpu time     12.1988: real time     12.2181

 eigenvalue-minimisations  :     0
 total energy-change (2. order) :-0.7928193E-03  (-0.1874265E-02)
 number of electron      22.0000001 magnetization 
 augmentation part       10.7970382 magnetization 

 Free energy of the ion-electron system (eV)
  ---------------------------------------------------
  alpha Z        PSCENC =         0.34430737
  Ewald energy   TEWEN  =       220.16056373
  -Hartree energ DENC   =     -2219.89963219
  -exchange      EXHF   =         0.00000000
  -V(xc)+E(xc)   XCENC  =         6.25257643
  PAW double counting   =      2239.48200718    -2194.81601126
  entropy T*S    EENTRO =        -0.00000000
  eigenvalues    EBANDS =      -156.02568411
  atomic energy  EATOM  =      2074.52556292
  ---------------------------------------------------
  free energy    TOTEN  =       -29.97630993 eV

  energy without entropy =      -29.97630993  energy(sigma->0) =      -29.97630993


--------------------------------------------------------------------------------------------------------




--------------------------------------- Iteration      1(  19)  ---------------------------------------


    POTLOK:  cpu time      0.7792: real time      0.7790
    SETDIJ:  cpu time      4.8747: real time      4.8794
    TRIAL :  cpu time      0.3678: real time      0.3678
    CORREC:  cpu time      5.9325: real time      5.9376
    CHARGE:  cpu time      0.1285: real time      0.1284
    --------------------------------------------
      LOOP:  cpu time     12.0863: real time     12.1036

 eigenvalue-minimisations  :     0
 total energy-change (2. order) : 0.1020757E-02  (-0.9254635E-03)
 number of electron      22.0000001 magnetization 
 augmentation part       10.7969819 magnetization 

 Free energy of the ion-electron system (eV)
  ---------------------------------------------------
  alpha Z        PSCENC =         0.34430737
  Ewald energy   TEWEN  =       220.16056373
  -Hartree energ DENC   =     -2219.90501416
  -exchange      EXHF   =         0.00000000
  -V(xc)+E(xc)   XCENC  =         6.25226895
  PAW double counting   =      2239.57939485    -2194.91341224
  entropy T*S    EENTRO =        -0.00000000
  eigenvalues    EBANDS =      -156.01896059
  atomic energy  EATOM  =      2074.52556292
  ---------------------------------------------------
  free energy    TOTEN  =       -29.97528917 eV

  energy without entropy =      -29.97528917  energy(sigma->0) =      -29.97528917


--------------------------------------------------------------------------------------------------------




--------------------------------------- Iteration      1(  20)  ---------------------------------------


    POTLOK:  cpu time      0.7817: real time      0.7822
    SETDIJ:  cpu time      4.8801: real time      4.8838
    TRIAL :  cpu time      0.3765: real time      0.3774
    CORREC:  cpu time      5.9817: real time      5.9867
    CHARGE:  cpu time      0.1204: real time      0.1202
    --------------------------------------------
      LOOP:  cpu time     12.1445: real time     12.1627

 eigenvalue-minimisations  :     0
 total energy-change (2. order) :-0.1172283E-02  (-0.1334671E-02)
 number of electron      22.0000001 magnetization 
 augmentation part       10.7969689 magnetization 

 Free energy of the ion-electron system (eV)
  ---------------------------------------------------
  alpha Z        PSCENC =         0.34430737
  Ewald energy   TEWEN  =       220.16056373
  -Hartree energ DENC   =     -2219.92147144
  -exchange      EXHF   =         0.00000000
  -V(xc)+E(xc)   XCENC  =         6.25241004
  PAW double counting   =      2239.87248854    -2195.20667454
  entropy T*S    EENTRO =        -0.00000000
  eigenvalues    EBANDS =      -156.00364807
  atomic energy  EATOM  =      2074.52556292
  ---------------------------------------------------
  free energy    TOTEN  =       -29.97646146 eV

  energy without entropy =      -29.97646146  energy(sigma->0) =      -29.97646146


--------------------------------------------------------------------------------------------------------




--------------------------------------- Iteration      1(  21)  ---------------------------------------


    POTLOK:  cpu time      0.7813: real time      0.7817
    SETDIJ:  cpu time      4.8969: real time      4.9008
    TRIAL :  cpu time      0.3668: real time      0.3668
    CORREC:  cpu time      5.9480: real time      5.9534
    CHARGE:  cpu time      0.1178: real time      0.1178
    --------------------------------------------
      LOOP:  cpu time     12.1143: real time     12.1322

 eigenvalue-minimisations  :     0
 total energy-change (2. order) : 0.1037738E-02  (-0.7077641E-03)
 number of electron      22.0000001 magnetization 
 augmentation part       10.7969286 magnetization 

 Free energy of the ion-electron system (eV)
  ---------------------------------------------------
  alpha Z        PSCENC =         0.34430737
  Ewald energy   TEWEN  =       220.16056373
  -Hartree energ DENC   =     -2219.92529641
  -exchange      EXHF   =         0.00000000
  -V(xc)+E(xc)   XCENC  =         6.25202585
  PAW double counting   =      2239.95314792    -2195.28735049
  entropy T*S    EENTRO =        -0.00000000
  eigenvalues    EBANDS =      -155.99838461
  atomic energy  EATOM  =      2074.52556292
  ---------------------------------------------------
  free energy    TOTEN  =       -29.97542372 eV

  energy without entropy =      -29.97542372  energy(sigma->0) =      -29.97542372


--------------------------------------------------------------------------------------------------------




--------------------------------------- Iteration      1(  22)  ---------------------------------------


    POTLOK:  cpu time      0.7844: real time      0.7850
    SETDIJ:  cpu time      4.8842: real time      4.8890
    TRIAL :  cpu time      0.3676: real time      0.3676
    CORREC:  cpu time      5.9598: real time      5.9654
    CHARGE:  cpu time      0.1180: real time      0.1180
    --------------------------------------------
      LOOP:  cpu time     12.1170: real time     12.1359

 eigenvalue-minimisations  :     0
 total energy-change (2. order) :-0.8004118E-03  (-0.7537586E-03)
 number of electron      22.0000001 magnetization 
 augmentation part       10.7969178 magnetization 

 Free energy of the ion-electron system (eV)
  ---------------------------------------------------
  alpha Z        PSCENC =         0.34430737
  Ewald energy   TEWEN  =       220.16056373
  -Hartree energ DENC   =     -2219.93561163
  -exchange      EXHF   =         0.00000000
  -V(xc)+E(xc)   XCENC  =         6.25224056
  PAW double counting   =      2240.16761186    -2195.50193500
  entropy T*S    EENTRO =        -0.00000000
  eigenvalues    EBANDS =      -155.98896393
  atomic energy  EATOM  =      2074.52556292
  ---------------------------------------------------
  free energy    TOTEN  =       -29.97622413 eV

  energy without entropy =      -29.97622413  energy(sigma->0) =      -29.97622413


--------------------------------------------------------------------------------------------------------




--------------------------------------- Iteration      1(  23)  ---------------------------------------


    POTLOK:  cpu time      0.7765: real time      0.7772
    SETDIJ:  cpu time      4.8859: real time      4.8900
    TRIAL :  cpu time      0.3676: real time      0.3677
    CORREC:  cpu time     23.6050: real time     23.6259
    CHARGE:  cpu time      0.1187: real time      0.1187
    --------------------------------------------
      LOOP:  cpu time     29.7568: real time     29.7900

 eigenvalue-minimisations  :     0
 total energy-change (2. order) : 0.1142489E-02  (-0.1342995E-04)
 number of electron      22.0000001 magnetization 
 augmentation part       10.7967444 magnetization 

 Free energy of the ion-electron system (eV)
  ---------------------------------------------------
  alpha Z        PSCENC =         0.34430737
  Ewald energy   TEWEN  =       220.16056373
  -Hartree energ DENC   =     -2219.93803449
  -exchange      EXHF   =         0.00000000
  -V(xc)+E(xc)   XCENC  =         6.25171511
  PAW double counting   =      2240.23192805    -2195.56627259
  entropy T*S    EENTRO =        -0.00000000
  eigenvalues    EBANDS =      -155.98485174
  atomic energy  EATOM  =      2074.52556292
  ---------------------------------------------------
  free energy    TOTEN  =       -29.97508164 eV

  energy without entropy =      -29.97508164  energy(sigma->0) =      -29.97508164


--------------------------------------------------------------------------------------------------------




--------------------------------------- Iteration      1(  24)  ---------------------------------------


    POTLOK:  cpu time      0.7663: real time      0.7669
    SETDIJ:  cpu time      4.7622: real time      4.7660
    TRIAL :  cpu time      0.3664: real time      0.3671
    CORREC:  cpu time      5.9643: real time      5.9690
    CHARGE:  cpu time      0.1249: real time      0.1249
    --------------------------------------------
      LOOP:  cpu time     11.9962: real time     12.0063

 eigenvalue-minimisations  :     0
 total energy-change (2. order) :-0.2532911E-02  (-0.2632035E-02)
 number of electron      22.0000001 magnetization 
 augmentation part       10.7967378 magnetization 

 Free energy of the ion-electron system (eV)
  ---------------------------------------------------
  alpha Z        PSCENC =         0.34430737
  Ewald energy   TEWEN  =       220.16056373
  -Hartree energ DENC   =     -2219.98073850
  -exchange      EXHF   =         0.00000000
  -V(xc)+E(xc)   XCENC  =         6.25079408
  PAW double counting   =      2241.16593826    -2196.50111315
  entropy T*S    EENTRO =        -0.00000000
  eigenvalues    EBANDS =      -155.94292925
  atomic energy  EATOM  =      2074.52556292
  ---------------------------------------------------
  free energy    TOTEN  =       -29.97761455 eV

  energy without entropy =      -29.97761455  energy(sigma->0) =      -29.97761455


--------------------------------------------------------------------------------------------------------




--------------------------------------- Iteration      1(  25)  ---------------------------------------


    POTLOK:  cpu time      0.7787: real time      0.7794
    SETDIJ:  cpu time      4.8766: real time      4.8812
    TRIAL :  cpu time      0.3637: real time      0.3637
    CORREC:  cpu time      5.9457: real time      5.9513
    CHARGE:  cpu time      0.1177: real time      0.1177
    --------------------------------------------
      LOOP:  cpu time     12.0859: real time     12.1041

 eigenvalue-minimisations  :     0
 total energy-change (2. order) : 0.9972079E-03  (-0.1717099E-02)
 number of electron      22.0000001 magnetization 
 augmentation part       10.7967227 magnetization 

 Free energy of the ion-electron system (eV)
  ---------------------------------------------------
  alpha Z        PSCENC =         0.34430737
  Ewald energy   TEWEN  =       220.16056373
  -Hartree energ DENC   =     -2219.98220187
  -exchange      EXHF   =         0.00000000
  -V(xc)+E(xc)   XCENC  =         6.25055628
  PAW double counting   =      2241.25705171    -2196.59215532
  entropy T*S    EENTRO =        -0.00000000
  eigenvalues    EBANDS =      -155.94030215
  atomic energy  EATOM  =      2074.52556292
  ---------------------------------------------------
  free energy    TOTEN  =       -29.97661734 eV

  energy without entropy =      -29.97661734  energy(sigma->0) =      -29.97661734


--------------------------------------------------------------------------------------------------------




--------------------------------------- Iteration      1(  26)  ---------------------------------------


    POTLOK:  cpu time      0.7678: real time      0.7684
    SETDIJ:  cpu time      4.8808: real time      4.8846
    TRIAL :  cpu time      0.3672: real time      0.3680
    CORREC:  cpu time      6.0069: real time      6.0117
    CHARGE:  cpu time      0.1182: real time      0.1182
    --------------------------------------------
      LOOP:  cpu time     12.1434: real time     12.1616

 eigenvalue-minimisations  :     0
 total energy-change (2. order) : 0.1322949E-03  (-0.1918879E-02)
 number of electron      22.0000001 magnetization 
 augmentation part       10.7967187 magnetization 

 Free energy of the ion-electron system (eV)
  ---------------------------------------------------
  alpha Z        PSCENC =         0.34430737
  Ewald energy   TEWEN  =       220.16056373
  -Hartree energ DENC   =     -2219.98559195
  -exchange      EXHF   =         0.00000000
  -V(xc)+E(xc)   XCENC  =         6.25035782
  PAW double counting   =      2241.43469956    -2196.76973712
  entropy T*S    EENTRO =        -0.00000000
  eigenvalues    EBANDS =      -155.93664737
  atomic energy  EATOM  =      2074.52556292
  ---------------------------------------------------
  free energy    TOTEN  =       -29.97648505 eV

  energy without entropy =      -29.97648505  energy(sigma->0) =      -29.97648505


--------------------------------------------------------------------------------------------------------




--------------------------------------- Iteration      1(  27)  ---------------------------------------


    POTLOK:  cpu time      0.7823: real time      0.7829
    SETDIJ:  cpu time      4.8696: real time      4.8743
    TRIAL :  cpu time      0.3640: real time      0.3640
    CORREC:  cpu time      5.9988: real time      6.0040
    CHARGE:  cpu time      0.1247: real time      0.1247
    --------------------------------------------
      LOOP:  cpu time     12.1430: real time     12.1614

 eigenvalue-minimisations  :     0
 total energy-change (2. order) : 0.1037154E-02  (-0.5827918E-03)
 number of electron      22.0000001 magnetization 
 augmentation part       10.7967037 magnetization 

 Free energy of the ion-electron system (eV)
  ---------------------------------------------------
  alpha Z        PSCENC =         0.34430737
  Ewald energy   TEWEN  =       220.16056373
  -Hartree energ DENC   =     -2219.98874640
  -exchange      EXHF   =         0.00000000
  -V(xc)+E(xc)   XCENC  =         6.25041683
  PAW double counting   =      2241.52963511    -2196.86469355
  entropy T*S    EENTRO =        -0.00000000
  eigenvalues    EBANDS =      -155.93249390
  atomic energy  EATOM  =      2074.52556292
  ---------------------------------------------------
  free energy    TOTEN  =       -29.97544789 eV

  energy without entropy =      -29.97544789  energy(sigma->0) =      -29.97544789


--------------------------------------------------------------------------------------------------------




--------------------------------------- Iteration      1(  28)  ---------------------------------------


    POTLOK:  cpu time      0.7724: real time      0.7733
    SETDIJ:  cpu time      4.8787: real time      4.8826
    TRIAL :  cpu time      0.3677: real time      0.3684
    CORREC:  cpu time      5.9298: real time      5.9342
    CHARGE:  cpu time      0.1192: real time      0.1194
    --------------------------------------------
      LOOP:  cpu time     12.0788: real time     12.0926

 eigenvalue-minimisations  :     0
 total energy-change (2. order) :-0.1333892E-03  (-0.4672433E-03)
 number of electron      22.0000001 magnetization 
 augmentation part       10.7966965 magnetization 

 Free energy of the ion-electron system (eV)
  ---------------------------------------------------
  alpha Z        PSCENC =         0.34430737
  Ewald energy   TEWEN  =       220.16056373
  -Hartree energ DENC   =     -2219.99267991
  -exchange      EXHF   =         0.00000000
  -V(xc)+E(xc)   XCENC  =         6.25037555
  PAW double counting   =      2241.69045491    -2197.02557123
  entropy T*S    EENTRO =        -0.00000000
  eigenvalues    EBANDS =      -155.92859463
  atomic energy  EATOM  =      2074.52556292
  ---------------------------------------------------
  free energy    TOTEN  =       -29.97558128 eV

  energy without entropy =      -29.97558128  energy(sigma->0) =      -29.97558128


--------------------------------------------------------------------------------------------------------




--------------------------------------- Iteration      1(  29)  ---------------------------------------


    POTLOK:  cpu time      0.7695: real time      0.7694
    SETDIJ:  cpu time      4.8880: real time      4.8928
    TRIAL :  cpu time      0.3668: real time      0.3669
    CORREC:  cpu time      5.9350: real time      5.9400
    CHARGE:  cpu time      0.1250: real time      0.1250
    --------------------------------------------
      LOOP:  cpu time     12.0874: real time     12.1054

 eigenvalue-minimisations  :     0
 total energy-change (2. order) : 0.5336240E-03  (-0.2024371E-03)
 number of electron      22.0000001 magnetization 
 augmentation part       10.7966706 magnetization 

 Free energy of the ion-electron system (eV)
  ---------------------------------------------------
  alpha Z        PSCENC =         0.34430737
  Ewald energy   TEWEN  =       220.16056373
  -Hartree energ DENC   =     -2219.99381864
  -exchange      EXHF   =         0.00000000
  -V(xc)+E(xc)   XCENC  =         6.25001468
  PAW double counting   =      2241.76575248    -2197.10088723
  entropy T*S    EENTRO =        -0.00000000
  eigenvalues    EBANDS =      -155.92654297
  atomic energy  EATOM  =      2074.52556292
  ---------------------------------------------------
  free energy    TOTEN  =       -29.97504766 eV

  energy without entropy =      -29.97504766  energy(sigma->0) =      -29.97504766


--------------------------------------------------------------------------------------------------------




--------------------------------------- Iteration      1(  30)  ---------------------------------------


    POTLOK:  cpu time      0.7512: real time      0.7519
    SETDIJ:  cpu time      4.8876: real time      4.8916
    TRIAL :  cpu time      0.3667: real time      0.3677
    CORREC:  cpu time      5.9980: real time      6.0023
    CHARGE:  cpu time      0.1171: real time      0.1179
    --------------------------------------------
      LOOP:  cpu time     12.1243: real time     12.1434

 eigenvalue-minimisations  :     0
 total energy-change (2. order) :-0.6594565E-03  (-0.2277686E-03)
 number of electron      22.0000001 magnetization 
 augmentation part       10.7966658 magnetization 

 Free energy of the ion-electron system (eV)
  ---------------------------------------------------
  alpha Z        PSCENC =         0.34430737
  Ewald energy   TEWEN  =       220.16056373
  -Hartree energ DENC   =     -2219.99939540
  -exchange      EXHF   =         0.00000000
  -V(xc)+E(xc)   XCENC  =         6.24993631
  PAW double counting   =      2242.01489925    -2197.35019165
  entropy T*S    EENTRO =        -0.00000000
  eigenvalues    EBANDS =      -155.92138964
  atomic energy  EATOM  =      2074.52556292
  ---------------------------------------------------
  free energy    TOTEN  =       -29.97570712 eV

  energy without entropy =      -29.97570712  energy(sigma->0) =      -29.97570712


--------------------------------------------------------------------------------------------------------




--------------------------------------- Iteration      1(  31)  ---------------------------------------


    POTLOK:  cpu time      0.7545: real time      0.7545
    SETDIJ:  cpu time      4.8869: real time      4.8914
    TRIAL :  cpu time      0.3701: real time      0.3703
    CORREC:  cpu time      5.8365: real time      5.8416
    CHARGE:  cpu time      0.1173: real time      0.1174
    --------------------------------------------
      LOOP:  cpu time     11.9681: real time     11.9856

 eigenvalue-minimisations  :     0
 total energy-change (2. order) : 0.5664565E-03  ( 0.3118580E-04)
 number of electron      22.0000001 magnetization 
 augmentation part       10.7966533 magnetization 

 Free energy of the ion-electron system (eV)
  ---------------------------------------------------
  alpha Z        PSCENC =         0.34430737
  Ewald energy   TEWEN  =       220.16056373
  -Hartree energ DENC   =     -2220.00064726
  -exchange      EXHF   =         0.00000000
  -V(xc)+E(xc)   XCENC  =         6.24966832
  PAW double counting   =      2242.07079317    -2197.40610614
  entropy T*S    EENTRO =        -0.00000000
  eigenvalues    EBANDS =      -155.91928276
  atomic energy  EATOM  =      2074.52556292
  ---------------------------------------------------
  free energy    TOTEN  =       -29.97514066 eV

  energy without entropy =      -29.97514066  energy(sigma->0) =      -29.97514066


--------------------------------------------------------------------------------------------------------




--------------------------------------- Iteration      1(  32)  ---------------------------------------


    POTLOK:  cpu time      0.7613: real time      0.7621
    SETDIJ:  cpu time      4.8845: real time      4.8885
    TRIAL :  cpu time      0.3656: real time      0.3665
    CORREC:  cpu time      6.0149: real time      6.0196
    CHARGE:  cpu time      0.1201: real time      0.1201
    --------------------------------------------
      LOOP:  cpu time     12.1582: real time     12.1687

 eigenvalue-minimisations  :     0
 total energy-change (2. order) :-0.3294984E-03  (-0.5930953E-04)
 number of electron      22.0000001 magnetization 
 augmentation part       10.7966494 magnetization 

 Free energy of the ion-electron system (eV)
  ---------------------------------------------------
  alpha Z        PSCENC =         0.34430737
  Ewald energy   TEWEN  =       220.16056373
  -Hartree energ DENC   =     -2220.00378328
  -exchange      EXHF   =         0.00000000
  -V(xc)+E(xc)   XCENC  =         6.24971557
  PAW double counting   =      2242.20794091    -2197.54333032
  entropy T*S    EENTRO =        -0.00000000
  eigenvalues    EBANDS =      -155.91644704
  atomic energy  EATOM  =      2074.52556292
  ---------------------------------------------------
  free energy    TOTEN  =       -29.97547016 eV

  energy without entropy =      -29.97547016  energy(sigma->0) =      -29.97547016


--------------------------------------------------------------------------------------------------------




--------------------------------------- Iteration      1(  33)  ---------------------------------------


    POTLOK:  cpu time      0.7665: real time      0.7671
    SETDIJ:  cpu time      4.8788: real time      4.8835
    TRIAL :  cpu time      0.3685: real time      0.3684
    CORREC:  cpu time      5.8930: real time      5.8981
    CHARGE:  cpu time      0.1195: real time      0.1195
    --------------------------------------------
      LOOP:  cpu time     12.0298: real time     12.0490

 eigenvalue-minimisations  :     0
 total energy-change (2. order) : 0.3206253E-03  ( 0.3591830E-05)
 number of electron      22.0000001 magnetization 
 augmentation part       10.7966377 magnetization 

 Free energy of the ion-electron system (eV)
  ---------------------------------------------------
  alpha Z        PSCENC =         0.34430737
  Ewald energy   TEWEN  =       220.16056373
  -Hartree energ DENC   =     -2220.00455850
  -exchange      EXHF   =         0.00000000
  -V(xc)+E(xc)   XCENC  =         6.24948766
  PAW double counting   =      2242.25107396    -2197.58647808
  entropy T*S    EENTRO =        -0.00000000
  eigenvalues    EBANDS =      -155.91510858
  atomic energy  EATOM  =      2074.52556292
  ---------------------------------------------------
  free energy    TOTEN  =       -29.97514953 eV

  energy without entropy =      -29.97514953  energy(sigma->0) =      -29.97514953


--------------------------------------------------------------------------------------------------------




--------------------------------------- Iteration      1(  34)  ---------------------------------------


    POTLOK:  cpu time      0.7763: real time      0.7771
    SETDIJ:  cpu time      4.8842: real time      4.8883
    TRIAL :  cpu time      0.3688: real time      0.3696
    CORREC:  cpu time      5.9551: real time      5.9597
    CHARGE:  cpu time      0.1181: real time      0.1181
    --------------------------------------------
      LOOP:  cpu time     12.1058: real time     12.1233

 eigenvalue-minimisations  :     0
 total energy-change (2. order) :-0.3961244E-03  ( 0.3373054E-05)
 number of electron      22.0000001 magnetization 
 augmentation part       10.7966004 magnetization 

 Free energy of the ion-electron system (eV)
  ---------------------------------------------------
  alpha Z        PSCENC =         0.34430737
  Ewald energy   TEWEN  =       220.16056373
  -Hartree energ DENC   =     -2220.00722271
  -exchange      EXHF   =         0.00000000
  -V(xc)+E(xc)   XCENC  =         6.24957309
  PAW double counting   =      2242.38727131    -2197.72273487
  entropy T*S    EENTRO =        -0.00000000
  eigenvalues    EBANDS =      -155.91286649
  atomic energy  EATOM  =      2074.52556292
  ---------------------------------------------------
  free energy    TOTEN  =       -29.97554566 eV

  energy without entropy =      -29.97554566  energy(sigma->0) =      -29.97554566


--------------------------------------------------------------------------------------------------------




--------------------------------------- Iteration      1(  35)  ---------------------------------------


    POTLOK:  cpu time      0.7629: real time      0.7637
    SETDIJ:  cpu time      4.8828: real time      4.8872
    TRIAL :  cpu time      0.3703: real time      0.3703
    CORREC:  cpu time      5.9274: real time      5.9329
    CHARGE:  cpu time      0.1189: real time      0.1189
    --------------------------------------------
      LOOP:  cpu time     12.0681: real time     12.0857

 eigenvalue-minimisations  :     0
 total energy-change (2. order) :-0.7689993E-03  (-0.8407020E-04)
 number of electron      22.0000001 magnetization 
 augmentation part       10.7965997 magnetization 

 Free energy of the ion-electron system (eV)
  ---------------------------------------------------
  alpha Z        PSCENC =         0.34430737
  Ewald energy   TEWEN  =       220.16056373
  -Hartree energ DENC   =     -2220.01558957
  -exchange      EXHF   =         0.00000000
  -V(xc)+E(xc)   XCENC  =         6.24939845
  PAW double counting   =      2242.83292246    -2198.16855672
  entropy T*S    EENTRO =        -0.00000000
  eigenvalues    EBANDS =      -155.90492329
  atomic energy  EATOM  =      2074.52556292
  ---------------------------------------------------
  free energy    TOTEN  =       -29.97631466 eV

  energy without entropy =      -29.97631466  energy(sigma->0) =      -29.97631466


--------------------------------------------------------------------------------------------------------




--------------------------------------- Iteration      1(  36)  ---------------------------------------


    POTLOK:  cpu time      0.7731: real time      0.7739
    SETDIJ:  cpu time      4.8787: real time      4.8825
    TRIAL :  cpu time      0.3664: real time      0.3672
    CORREC:  cpu time      5.9744: real time      5.9792
    CHARGE:  cpu time      0.1196: real time      0.1196
    --------------------------------------------
      LOOP:  cpu time     12.1183: real time     12.1369

 eigenvalue-minimisations  :     0
 total energy-change (2. order) : 0.6893864E-03  (-0.2085815E-04)
 number of electron      22.0000001 magnetization 
 augmentation part       10.7965988 magnetization 

 Free energy of the ion-electron system (eV)
  ---------------------------------------------------
  alpha Z        PSCENC =         0.34430737
  Ewald energy   TEWEN  =       220.16056373
  -Hartree energ DENC   =     -2220.01605131
  -exchange      EXHF   =         0.00000000
  -V(xc)+E(xc)   XCENC  =         6.24908020
  PAW double counting   =      2242.85363478    -2198.18926614
  entropy T*S    EENTRO =        -0.00000000
  eigenvalues    EBANDS =      -155.90345682
  atomic energy  EATOM  =      2074.52556292
  ---------------------------------------------------
  free energy    TOTEN  =       -29.97562527 eV

  energy without entropy =      -29.97562527  energy(sigma->0) =      -29.97562527


--------------------------------------------------------------------------------------------------------




--------------------------------------- Iteration      1(  37)  ---------------------------------------


    POTLOK:  cpu time      0.7695: real time      0.7703
    SETDIJ:  cpu time      4.8864: real time      4.8910
    TRIAL :  cpu time      0.3698: real time      0.3697
    CORREC:  cpu time      5.8958: real time      5.9011
    CHARGE:  cpu time      0.1182: real time      0.1183
    --------------------------------------------
      LOOP:  cpu time     12.0435: real time     12.0616

 eigenvalue-minimisations  :     0
 total energy-change (2. order) : 0.2441905E-03  ( 0.6565244E-05)
 number of electron      22.0000001 magnetization 
 augmentation part       10.7965950 magnetization 

 Free energy of the ion-electron system (eV)
  ---------------------------------------------------
  alpha Z        PSCENC =         0.34430737
  Ewald energy   TEWEN  =       220.16056373
  -Hartree energ DENC   =     -2220.01647086
  -exchange      EXHF   =         0.00000000
  -V(xc)+E(xc)   XCENC  =         6.24893554
  PAW double counting   =      2242.87463061    -2198.21026531
  entropy T*S    EENTRO =        -0.00000000
  eigenvalues    EBANDS =      -155.90264507
  atomic energy  EATOM  =      2074.52556292
  ---------------------------------------------------
  free energy    TOTEN  =       -29.97538108 eV

  energy without entropy =      -29.97538108  energy(sigma->0) =      -29.97538108


--------------------------------------------------------------------------------------------------------




--------------------------------------- Iteration      1(  38)  ---------------------------------------


    POTLOK:  cpu time      0.7649: real time      0.7658
    SETDIJ:  cpu time      4.8904: real time      4.8944
    TRIAL :  cpu time      0.3667: real time      0.3674
    CORREC:  cpu time      5.9710: real time      5.9756
    CHARGE:  cpu time      0.1203: real time      0.1205
    --------------------------------------------
      LOOP:  cpu time     12.1214: real time     12.1438

 eigenvalue-minimisations  :     0
 total energy-change (2. order) :-0.2244296E-03  (-0.8286849E-05)
 number of electron      22.0000001 magnetization 
 augmentation part       10.7965924 magnetization 

 Free energy of the ion-electron system (eV)
[...]
  ---------------------------------------------------
  free energy    TOTEN  =       -29.97504166 eV

  energy without entropy =      -29.97504166  energy(sigma->0) =      -29.97504166


--------------------------------------------------------------------------------------------------------




--------------------------------------- Iteration      1( 134)  ---------------------------------------


    POTLOK:  cpu time      0.7842: real time      0.7848
    SETDIJ:  cpu time      4.8811: real time      4.8850
    TRIAL :  cpu time      0.3660: real time      0.3660
    CORREC:  cpu time      5.9496: real time      5.9553
    CHARGE:  cpu time      0.1177: real time      0.1177
    --------------------------------------------
      LOOP:  cpu time     12.1027: real time     12.1206

 eigenvalue-minimisations  :     0
 total energy-change (2. order) : 0.1054565E-04  (-0.7302438E-06)
 number of electron      22.0000001 magnetization 
 augmentation part       10.7965973 magnetization 

 Free energy of the ion-electron system (eV)
  ---------------------------------------------------
  alpha Z        PSCENC =         0.34430737
  Ewald energy   TEWEN  =       220.16056373
  -Hartree energ DENC   =     -2220.03333884
  -exchange      EXHF   =         0.00000000
  -V(xc)+E(xc)   XCENC  =         6.24452782
  PAW double counting   =      2247.07375478    -2202.40931898
  entropy T*S    EENTRO =        -0.00000000
  eigenvalues    EBANDS =      -155.88108992
  atomic energy  EATOM  =      2074.52556292
  ---------------------------------------------------
  free energy    TOTEN  =       -29.97503111 eV

  energy without entropy =      -29.97503111  energy(sigma->0) =      -29.97503111


--------------------------------------------------------------------------------------------------------




--------------------------------------- Iteration      1( 135)  ---------------------------------------


    POTLOK:  cpu time      0.8180: real time      0.8186
    SETDIJ:  cpu time      4.8766: real time      4.8813
    TRIAL :  cpu time      0.3664: real time      0.3665
    CORREC:  cpu time      5.9637: real time      5.9690
    CHARGE:  cpu time      0.1249: real time      0.1249
    --------------------------------------------
      LOOP:  cpu time     12.1528: real time     12.1718

 eigenvalue-minimisations  :     0
 total energy-change (2. order) : 0.8588830E-05  (-0.8823462E-06)
 number of electron      22.0000001 magnetization 
 augmentation part       10.7965975 magnetization 

 Free energy of the ion-electron system (eV)
  ---------------------------------------------------
  alpha Z        PSCENC =         0.34430737
  Ewald energy   TEWEN  =       220.16056373
  -Hartree energ DENC   =     -2220.03342821
  -exchange      EXHF   =         0.00000000
  -V(xc)+E(xc)   XCENC  =         6.24452222
  PAW double counting   =      2247.07604491    -2202.41161086
  entropy T*S    EENTRO =        -0.00000000
  eigenvalues    EBANDS =      -155.88098460
  atomic energy  EATOM  =      2074.52556292
  ---------------------------------------------------
  free energy    TOTEN  =       -29.97502252 eV

  energy without entropy =      -29.97502252  energy(sigma->0) =      -29.97502252


--------------------------------------------------------------------------------------------------------




--------------------------------------- Iteration      1( 136)  ---------------------------------------


    POTLOK:  cpu time      0.8642: real time      0.8647
    SETDIJ:  cpu time      4.8801: real time      4.8840
    TRIAL :  cpu time      0.3681: real time      0.3689
    CORREC:  cpu time      5.9715: real time      5.9761
    CHARGE:  cpu time      0.1195: real time      0.1197
    --------------------------------------------
      LOOP:  cpu time     12.2078: real time     12.2261

 eigenvalue-minimisations  :     0
 total energy-change (2. order) : 0.1300902E-05  (-0.8583723E-06)
 number of electron      22.0000001 magnetization 
 augmentation part       10.7965976 magnetization 

 Free energy of the ion-electron system (eV)
  ---------------------------------------------------
  alpha Z        PSCENC =         0.34430737
  Ewald energy   TEWEN  =       220.16056373
  -Hartree energ DENC   =     -2220.03354134
  -exchange      EXHF   =         0.00000000
  -V(xc)+E(xc)   XCENC  =         6.24452226
  PAW double counting   =      2247.07904126    -2202.41460968
  entropy T*S    EENTRO =        -0.00000000
  eigenvalues    EBANDS =      -155.88086773
  atomic energy  EATOM  =      2074.52556292
  ---------------------------------------------------
  free energy    TOTEN  =       -29.97502122 eV

  energy without entropy =      -29.97502122  energy(sigma->0) =      -29.97502122


--------------------------------------------------------------------------------------------------------




--------------------------------------- Iteration      1( 137)  ---------------------------------------


    POTLOK:  cpu time      0.7930: real time      0.7936
    SETDIJ:  cpu time      4.8819: real time      4.8867
    TRIAL :  cpu time      0.3678: real time      0.3679
    CORREC:  cpu time      5.9653: real time      5.9708
    CHARGE:  cpu time      0.1184: real time      0.1184
    --------------------------------------------
      LOOP:  cpu time     12.1339: real time     12.1518

 eigenvalue-minimisations  :     0
 total energy-change (2. order) : 0.7142574E-05  (-0.5614846E-06)
 number of electron      22.0000001 magnetization 
 augmentation part       10.7965977 magnetization 

 Free energy of the ion-electron system (eV)
  ---------------------------------------------------
  alpha Z        PSCENC =         0.34430737
  Ewald energy   TEWEN  =       220.16056373
  -Hartree energ DENC   =     -2220.03365676
  -exchange      EXHF   =         0.00000000
  -V(xc)+E(xc)   XCENC  =         6.24452535
  PAW double counting   =      2247.08221255    -2202.41778369
  entropy T*S    EENTRO =        -0.00000000
  eigenvalues    EBANDS =      -155.88074555
  atomic energy  EATOM  =      2074.52556292
  ---------------------------------------------------
  free energy    TOTEN  =       -29.97501408 eV

  energy without entropy =      -29.97501408  energy(sigma->0) =      -29.97501408


--------------------------------------------------------------------------------------------------------




--------------------------------------- Iteration      1( 138)  ---------------------------------------


    POTLOK:  cpu time      0.7973: real time      0.7978
    SETDIJ:  cpu time      4.8874: real time      4.8916
    TRIAL :  cpu time      0.3670: real time      0.3682
    CORREC:  cpu time      5.9787: real time      5.9835
    CHARGE:  cpu time      0.1200: real time      0.1208
    --------------------------------------------
      LOOP:  cpu time     12.1541: real time     12.1733

 eigenvalue-minimisations  :     0
 total energy-change (2. order) : 0.2864135E-05  (-0.5806691E-06)
 number of electron      22.0000001 magnetization 
 augmentation part       10.7965979 magnetization 

 Free energy of the ion-electron system (eV)
  ---------------------------------------------------
  alpha Z        PSCENC =         0.34430737
  Ewald energy   TEWEN  =       220.16056373
  -Hartree energ DENC   =     -2220.03373844
  -exchange      EXHF   =         0.00000000
  -V(xc)+E(xc)   XCENC  =         6.24452473
  PAW double counting   =      2247.08460283    -2202.42017606
  entropy T*S    EENTRO =        -0.00000000
  eigenvalues    EBANDS =      -155.88065829
  atomic energy  EATOM  =      2074.52556292
  ---------------------------------------------------
  free energy    TOTEN  =       -29.97501121 eV

  energy without entropy =      -29.97501121  energy(sigma->0) =      -29.97501121


--------------------------------------------------------------------------------------------------------




--------------------------------------- Iteration      1( 139)  ---------------------------------------


    POTLOK:  cpu time      0.9150: real time      0.9159
    SETDIJ:  cpu time      4.8863: real time      4.8902
    TRIAL :  cpu time      0.3672: real time      0.3679
    CORREC:  cpu time      5.9557: real time      5.9603
    EDDIAG:  cpu time      0.1521: real time      0.1522
    CHARGE:  cpu time      0.1180: real time      0.1180
    --------------------------------------------
      LOOP:  cpu time     12.3978: real time     12.4162

 eigenvalue-minimisations  :     0
 total energy-change (2. order) : 0.5669544E-06  (-0.5747329E-06)
 number of electron      22.0000001 magnetization 
 augmentation part       10.7965980 magnetization 

 Free energy of the ion-electron system (eV)
  ---------------------------------------------------
  alpha Z        PSCENC =         0.34430737
  Ewald energy   TEWEN  =       220.16056373
  -Hartree energ DENC   =     -2220.03382401
  -exchange      EXHF   =         0.00000000
  -V(xc)+E(xc)   XCENC  =         6.24452667
  PAW double counting   =      2247.08720250    -2202.42277806
  entropy T*S    EENTRO =        -0.00000000
  eigenvalues    EBANDS =      -155.88057177
  atomic energy  EATOM  =      2074.52556292
  ---------------------------------------------------
  free energy    TOTEN  =       -29.97501065 eV

  energy without entropy =      -29.97501065  energy(sigma->0) =      -29.97501065


--------------------------------------------------------------------------------------------------------


  average scaling for gradient   0.0910


 average (electrostatic) potential at core
  the test charge radii are     1.1249
  (the norm of the test charge is              1.0000)
       1 -87.0905       2 -87.0907
 
 
 
 E-fermi :  -3.3886     XC(G=0):  -0.3241     alpha+bet : -0.0465

 Fermi energy:        -3.3886113694

 k-point     1 :       0.0000    0.0000    0.0000
  band No.  band energies     occupation 
      1      -8.2287      2.00000
      2      -7.8113      2.00000
      3      -7.8107      2.00000
      4      -7.3046      2.00000
      5      -7.3037      2.00000
      6      -7.1057      2.00000
      7      -7.1047      2.00000
      8      -6.8450      2.00000
      9      -6.8444      2.00000
     10      -6.6903      2.00000
     11      -4.8908      2.00000
     12      -2.5291      0.00000
     13      -1.0492      0.00000
     14      -0.6924      0.00000
     15      -0.6748      0.00000
     16      -0.5731      0.00000
     17      -0.4800      0.00000
     18      -0.0225      0.00000
     19       0.1291      0.00000
     20       0.2408      0.00000
     21       0.2888      0.00000
     22       0.3653      0.00000
     23       0.4237      0.00000
     24       0.4395      0.00000
     25       0.4569      0.00000
     26       0.5233      0.00000
     27       0.5526      0.00000
     28       0.5955      0.00000
     29       0.6098      0.00000
     30       0.9611      0.00000
     31       1.1282      0.00000
     32       1.4473      0.00000


--------------------------------------------------------------------------------------------------------


 soft charge-density along one line, spin component           1
         0         1         2         3         4         5         6         7         8         9
 total charge-density along one line
 
 pseudopotential strength for first ion, spin component:           1
-10.551  -0.000  -0.019   0.000   0.000 -10.527  -0.000  -0.018
 -0.000 -10.532   0.000   0.013  -0.000  -0.000 -10.508   0.000
 -0.019   0.000 -10.531  -0.000  -0.000  -0.018   0.000 -10.507
  0.000   0.013  -0.000 -10.532  -0.000   0.000   0.012  -0.000
  0.000  -0.000  -0.000  -0.000 -10.545   0.000  -0.000  -0.000
-10.527  -0.000  -0.018   0.000   0.000 -10.477  -0.000  -0.017
 -0.000 -10.508   0.000   0.012  -0.000  -0.000 -10.459   0.000
 -0.018   0.000 -10.507  -0.000  -0.000  -0.017   0.000 -10.459
  0.000   0.012  -0.000 -10.508  -0.000   0.000   0.012  -0.000
  0.000  -0.000  -0.000  -0.000 -10.521   0.000  -0.000  -0.000
 -0.013  -0.000  -0.008   0.000  -0.000  -0.013  -0.000  -0.007
 -0.022  -0.000  -0.013   0.000  -0.000  -0.021  -0.000  -0.012
  0.024  -0.000   0.014  -0.000   0.027   0.024  -0.000   0.014
 -0.000  -0.027  -0.000   0.027   0.000  -0.000  -0.027  -0.000
 -0.024  -0.000  -0.014  -0.000   0.028  -0.024  -0.000  -0.014
  0.029  -0.000   0.017  -0.000   0.032   0.027  -0.000   0.016
 -0.000  -0.032  -0.001   0.032  -0.000  -0.000  -0.031  -0.001
 -0.029  -0.000  -0.017  -0.000   0.032  -0.027  -0.000  -0.016
 total augmentation occupancy for first ion, spin component:           1
  3.082  -0.000   0.170   0.000  -0.000  -0.849   0.000  -0.238  -0.000   0.000   1.130  -0.328   0.086   0.000  -0.086   0.005
 -0.000   2.829  -0.000  -0.043  -0.000   0.000  -0.514   0.000   0.079   0.000  -0.001   0.000  -0.000  -0.013   0.000  -0.000
  0.170  -0.000   2.887   0.000  -0.000  -0.239   0.000  -0.574  -0.000   0.000   0.652  -0.189   0.050   0.000  -0.050   0.003
  0.000  -0.043   0.000   2.829  -0.000  -0.000   0.079  -0.000  -0.514   0.000   0.001  -0.000   0.000   0.013  -0.000  -0.000
 -0.000  -0.000  -0.000  -0.000   2.873   0.000   0.000   0.000   0.000  -0.594  -0.001   0.000   0.013   0.000   0.013   0.017
 -0.849   0.000  -0.239  -0.000   0.000   0.595  -0.000   0.300   0.000  -0.000  -0.960   0.273  -0.110  -0.000   0.110   0.011
  0.000  -0.514   0.000   0.079   0.000  -0.000   0.188  -0.000  -0.112   0.000   0.001  -0.000   0.000   0.027  -0.000   0.000
 -0.238   0.000  -0.574  -0.000   0.000   0.300  -0.000   0.249   0.000  -0.000  -0.554   0.158  -0.063  -0.000   0.063   0.007
 -0.000   0.079  -0.000  -0.514   0.000   0.000  -0.112   0.000   0.188   0.000  -0.001   0.000  -0.000  -0.027   0.000   0.000
  0.000   0.000   0.000   0.000  -0.594  -0.000   0.000  -0.000   0.000   0.301   0.001  -0.000  -0.027   0.000  -0.027   0.000
  1.130  -0.001   0.652   0.001  -0.001  -0.960   0.001  -0.554  -0.001   0.001   3.460  -0.908   0.255   0.001  -0.255  -0.029
 -0.328   0.000  -0.189  -0.000   0.000   0.273  -0.000   0.158   0.000  -0.000  -0.908   0.240  -0.070  -0.000   0.070   0.008
  0.086  -0.000   0.050   0.000   0.013  -0.110   0.000  -0.063  -0.000  -0.027   0.255  -0.070   0.029   0.000  -0.022  -0.004
  0.000  -0.013   0.000   0.013   0.000  -0.000   0.027  -0.000  -0.027   0.000   0.001  -0.000   0.000   0.007  -0.000  -0.000
 -0.086   0.000  -0.050  -0.000   0.013   0.110  -0.000   0.063   0.000  -0.027  -0.255   0.070  -0.022  -0.000   0.029   0.003
  0.005  -0.000   0.003  -0.000   0.017   0.011   0.000   0.007   0.000   0.000  -0.029   0.008  -0.004  -0.000   0.003   0.001
 -0.000  -0.017  -0.000   0.017  -0.000   0.000  -0.000   0.000   0.000  -0.000  -0.000   0.000  -0.000  -0.001   0.000   0.000
 -0.005  -0.000  -0.003  -0.000   0.017  -0.011   0.000  -0.007   0.000   0.000   0.029  -0.008   0.003   0.000  -0.004  -0.000


------------------------ aborting loop because EDIFF is reached ----------------------------------------


    FORLOC:  cpu time      0.0044: real time      0.0045
    FORNL :  cpu time      0.0436: real time      0.0445
    STRESS:  cpu time      1.7424: real time      1.7441
    FORCOR:  cpu time      0.8061: real time      0.8070
    OFIELD:  cpu time      0.0002: real time      0.0002

  FORCE on cell =-STRESS in cart. coord.  units (eV):
  Direction    XX          YY          ZZ          XY          YZ          ZX
  --------------------------------------------------------------------------------------
  Alpha Z     0.34431     0.34431     0.34431
  Ewald     194.38076   194.38076  -168.60098  -335.13349    -0.00000    -0.00000
  Hartree   830.24406   830.21311   559.57674  -243.36762     0.00202    -0.00741
  E(xc)    -130.95594  -130.95626  -131.13270    -0.12553    -0.00019     0.00011
  Local   -1334.76062 -1334.72901  -706.23441   573.37796    -0.00179     0.00750
  n-local   -26.39143   -26.38708   -24.95558     1.43506    -0.00056     0.00094
  augment   193.53521   193.53311   194.45126     0.93527     0.00049    -0.00046
  Kinetic   273.69516   273.69963   276.49425     2.80017    -0.00014     0.00147
  Fock        0.00000     0.00000     0.00000     0.00000     0.00000     0.00000
  -------------------------------------------------------------------------------------
  Total       0.09151     0.09856    -0.05711    -0.07819    -0.00017     0.00215
  in kB       0.01484     0.01598    -0.00926    -0.01268    -0.00003     0.00035
  external pressure =        0.01 kB  Pullay stress =        0.00 kB


 VOLUME and BASIS-vectors are now :
 -----------------------------------------------------------------------------
  energy-cutoff  :      520.00
  volume of cell :     9881.61
      direct lattice vectors                 reciprocal lattice vectors
    21.138852197  0.000000000  0.000000000     0.047306258  0.000000000  0.000000000
     0.000000000 21.138852197  0.000000000     0.000000000  0.047306258  0.000000000
     0.000000000  0.000000000 22.113885220     0.000000000  0.000000000  0.045220457

  length of vectors
    21.138852197 21.138852197 22.113885220     0.047306258  0.047306258  0.045220457


 FORCES acting on ions:
    Electron-Ion                     Ewald-Force                    Non-Local-Force
 -----------------------------------------------------------------------------------------------
   -.190E+03 0.190E+03 0.704E-01   0.185E+03 -.185E+03 -.163E-16   0.531E+01 -.530E+01 -.158E+00
   0.190E+03 -.190E+03 0.832E-01   -.185E+03 0.185E+03 0.364E-16   -.529E+01 0.532E+01 -.167E+00
 -----------------------------------------------------------------------------------------------
   -.289E-01 -.303E-01 0.214E+00   0.000E+00 0.000E+00 0.201E-16   0.192E-01 0.224E-01 -.324E+00
 
 
 POSITION                                       TOTAL-FORCE (eV/Angst)
 -----------------------------------------------------------------------------------
     10.42106      8.60391     14.09831         0.120083     -0.112825     -0.002230
      8.60390     10.42106     14.09831        -0.120083      0.112825      0.002230
 -----------------------------------------------------------------------------------
    total drift:                               -0.009702     -0.007891     -0.110499


--------------------------------------------------------------------------------------------------------



  FREE ENERGIE OF THE ION-ELECTRON SYSTEM (eV)
  ---------------------------------------------------
  free  energy   TOTEN  =       -29.97501065 eV

  energy  without entropy=      -29.97501065  energy(sigma->0) =      -29.97501065
 


--------------------------------------------------------------------------------------------------------


    POTLOK:  cpu time      5.7281: real time      5.7327


--------------------------------------------------------------------------------------------------------


     LOOP+:  cpu time   1771.0423: real time   1773.5467
    4ORBIT:  cpu time      0.0000: real time      0.0000

 total amount of memory used by VASP MPI-rank0    68034. kBytes
=======================================================================

   base      :      30000. kBytes
   nonlr-proj:        314. kBytes
   fftplans  :      11482. kBytes
   grid      :      25425. kBytes
   one-center:         15. kBytes
   wavefun   :        798. kBytes
 
  
  
 General timing and accounting informations for this job:
 ========================================================
  
                  Total CPU time used (sec):     1785.157
                            User time (sec):     1782.902
                          System time (sec):        2.255
                         Elapsed time (sec):     1788.318
  
                   Maximum memory used (kb):      740748.
                   Average memory used (kb):          N/A
  
                          Minor page faults:        39620
                          Major page faults:            0
                 Voluntary context switches:        11556
