 vasp.6.3.0 20Jan22 (build Apr  1 2022 16:44:48) complex                         
 executed on        HPECrayEX_GCC date 2022.11.18  13:46:17
 running 2048 mpi-ranks, with    1 threads/rank
 distrk:  each k-point on 1024 cores,    2 groups
 distr:  one band on NCORE=   4 cores,  256 groups


--------------------------------------------------------------------------------------------------------


 INCAR:
   SYSTEM = MgO-rocksalt
   ISMEAR = 0
   SIGMA = 0.05
   EDIFF = 1E-6
   ALGO = ALL
   ISTART = 0
   IBRION = -1
   NSW = 0
   ISYM = 2
   DIPOL = 0.5 0.5 0.5
   IDIPOL = 3
   LDIPOL = .TRUE.
   GGA = MK
   PARAM1 = 0.1234
   PARAM2 = 1.0
   LUSE_VDW = .TRUE.
   AGGAC = 0.0
   ENCUT = 520
   PREC = Accurate
   LASPH = .TRUE.
   LREAL = Auto
   ISPIN = 1
   NELM = 200
   NELMIN = 8
   NCORE = 4
   KPAR = 2
   LWAVE = .FALSE.
   LCHARG = .FALSE.

 POTCAR:    PAW_PBE Cu 22Jun2005                  
 -----------------------------------------------------------------------------
|                                                                             |
|               ----> ADVICE to this user running VASP <----                  |
|                                                                             |
|     You have switched on vdW-DFT.                                           |
|     This routine was written and supplied by Jiri Klimes. We recommend      |
|     that you carefully read and cite the following publications:            |
|       J. Klimes, D.R. Bowler, A. Michelides                                 |
|          J. Phys.: Cond Matt. 22 022201 (2010)                              |
|       J. Klimes, D.R. Bowler, A. Michelides                                 |
|          Phys. Rev. B. 83, 195131 (2011)                                    |
|     and references therein.                                                 |
|                                                                             |
 -----------------------------------------------------------------------------

 POTCAR:    PAW_PBE Cu 22Jun2005                  
   SHA256 =  0e71e558f37a4e8407882b4609ceaae59938afaad9ced71dfe8490308a0ab630 Cu/POTCAR             
   COPYR  = (c) Copyright 22Jun2005 Georg Kresse                                                    
   COPYR  = This file is part of the software VASP. Any use, copying, and all other rights are regul
   COPYR  = If you do not have a valid VASP license, you may not use, copy or distribute this file. 
   VRHFIN =Cu: d10 p1                                                                               
   LEXCH  = PE                                                                                      
   EATOM  =  1390.9808 eV,  102.2342 Ry                                                             
                                                                                                    
   TITEL  = PAW_PBE Cu 22Jun2005                                                                    
   LULTRA =        F    use ultrasoft PP ?                                                          
   IUNSCR =        1    unscreen: 0-lin 1-nonlin 2-no                                               
   RPACOR =    2.000    partial core radius                                                         
   POMASS =   63.546; ZVAL   =   11.000    mass and valenz                                          
   RCORE  =    2.300    outmost cutoff radius                                                       
   RWIGS  =    2.200; RWIGS  =    1.164    wigner-seitz radius (au A)                               
   ENMAX  =  295.446; ENMIN  =  221.585 eV                                                          
   ICORE  =        3    local potential                                                             
   LCOR   =        T    correct aug charges                                                         
   LPAW   =        T    paw PP                                                                      
   EAUG   =  586.980                                                                                
   DEXC   =    0.000                                                                                
   RMAX   =    2.344    core radius for proj-oper                                                   
   RAUG   =    1.300    factor for augmentation sphere                                              
   RDEP   =    2.302    radius for radial grids                                                     
   RDEPT  =    1.771    core radius for aug-charge                                                  
                                                                                                    
   Atomic configuration                                                                             
    9 entries                                                                                       
     n  l   j            E        occ.                                                              
     1  0  0.50     -8850.2468   2.0000                                                             
     2  0  0.50     -1062.3498   2.0000                                                             
     2  1  1.50      -916.8226   6.0000                                                             
     3  0  0.50      -114.6929   2.0000                                                             
     3  1  1.50       -72.1325   6.0000                                                             
     3  2  2.50        -5.0394  10.0000                                                             
     4  0  0.50        -4.6097   1.0000                                                             
     4  1  0.50        -4.0817   0.0000                                                             
     4  3  2.50        -1.3606   0.0000                                                             
   Description                                                                                      
     l       E           TYP  RCUT    TYP  RCUT                                                     
     2     -5.0393973     23  2.200                                                                 
     2     10.8846608     23  2.200                                                                 
     0     -4.6097109     23  2.200                                                                 
     0      8.2520465     23  2.200                                                                 
     1     -2.7211652     23  2.200                                                                 
     1     21.7055443     23  2.200                                                                 
     3      2.7211652     23  2.300                                                                 
  local pseudopotential read in
  partial core-charges read in
  partial kinetic energy density read in
  atomic valenz-charges read in
  non local Contribution for L=           2  read in
    real space projection operators read in
  non local Contribution for L=           2  read in
    real space projection operators read in
  non local Contribution for L=           0  read in
    real space projection operators read in
  non local Contribution for L=           0  read in
    real space projection operators read in
  non local Contribution for L=           1  read in
    real space projection operators read in
  non local Contribution for L=           1  read in
    real space projection operators read in
    PAW grid and wavefunctions read in

   number of l-projection  operators is LMAX  =           6
   number of lm-projection operators is LMMAX =          18

 -----------------------------------------------------------------------------
|                                                                             |
|               ----> ADVICE to this user running VASP <----                  |
|                                                                             |
|     You have a (more or less) 'small supercell' and for smaller cells       |
|     it is recommended to use the reciprocal-space projection scheme!        |
|     The real-space optimization is not efficient for small cells and it     |
|     is also less accurate ...                                               |
|     Therefore, set LREAL=.FALSE. in the INCAR file.                         |
|                                                                             |
 -----------------------------------------------------------------------------

 Optimization of the real space projectors (new method)

 maximal supplied QI-value         = 16.25
 optimisation between [QCUT,QGAM] = [ 11.54, 23.24] = [ 37.28,151.24] Ry 
 Optimized for a Real-space Cutoff    1.53 Angstroem

   l    n(q)    QCUT    max X(q) W(low)/X(q) W(high)/X(q)  e(spline) 
   2     10    11.539     4.610    0.96E-04    0.13E-03    0.19E-06
   2     10    11.539     8.522    0.16E-03    0.21E-03    0.28E-06
   0     11    11.539    51.609    0.45E-04    0.31E-04    0.11E-06
   0     11    11.539    27.747    0.39E-04    0.29E-04    0.10E-06
   1     10    11.539    20.408    0.70E-05    0.38E-04    0.18E-06
   1     10    11.539    13.425    0.66E-05    0.34E-04    0.17E-06
 -----------------------------------------------------------------------------
|                                                                             |
|               ----> ADVICE to this user running VASP <----                  |
|                                                                             |
|     You enforced a specific xc type in the INCAR file but a different       |
|     type was found in the POTCAR file.                                      |
|     I HOPE YOU KNOW WHAT YOU ARE DOING!                                     |
|                                                                             |
 -----------------------------------------------------------------------------

  PAW_PBE Cu 22Jun2005                  :
 energy of atom  1       EATOM=-1390.9808
 kinetic energy error for atom=    0.0037 (will be added to EATOM!!)


 POSCAR: Cu
  positions in direct lattice
  No initial velocities read in
 exchange correlation table for  LEXCH =       43
   RHO(1)=    0.500       N(1)  =     2000
   RHO(2)=  100.500       N(2)  =     4000



--------------------------------------------------------------------------------------------------------


 ion  position               nearest neighbor table
   1  0.553  0.500  0.630-   2 2.23
   2  0.447  0.500  0.630-   1 2.23

  LATTYP: Found a simple tetragonal cell.
 ALAT       =    21.1388521970
 C/A-ratio  =     1.0461251639
  
  Lattice vectors:
  
 A1 = (  21.1388521970,   0.0000000000,   0.0000000000)
 A2 = (   0.0000000000,  21.1388521970,   0.0000000000)
 A3 = (   0.0000000000,   0.0000000000,  22.1138852197)


Analysis of symmetry for initial positions (statically):
=====================================================================
 Subroutine PRICEL returns:
 Original cell was already a primitive cell.
 

 Routine SETGRP: Setting up the symmetry group for a 
 simple tetragonal supercell.


 Subroutine GETGRP returns: Found  8 space group operations
 (whereof  4 operations were pure point group operations)
 out of a pool of 16 trial point group operations.


The static configuration has the point symmetry C_2v.
 The point group associated with its full space group is D_2h.


Analysis of symmetry for dynamics (positions and initial velocities):
=====================================================================
 Subroutine PRICEL returns:
 Original cell was already a primitive cell.
 

 Routine SETGRP: Setting up the symmetry group for a 
 simple tetragonal supercell.


 Subroutine GETGRP returns: Found  8 space group operations
 (whereof  4 operations were pure point group operations)
 out of a pool of 16 trial point group operations.


The dynamic configuration has the point symmetry C_2v.
 The point group associated with its full space group is D_2h.


 Subroutine INISYM returns: Found  8 space group operations
 (whereof  4 operations are pure point group operations),
 and found     1 'primitive' translations


----------------------------------------------------------------------------------------

                                     Primitive cell                                     

  volume of cell :    9881.6133

  direct lattice vectors                    reciprocal lattice vectors
    21.138852197  0.000000000  0.000000000     0.047306258  0.000000000  0.000000000
     0.000000000 21.138852197  0.000000000     0.000000000  0.047306258  0.000000000
     0.000000000  0.000000000 22.113885220     0.000000000  0.000000000  0.045220457

  length of vectors
    21.138852197 21.138852197 22.113885220     0.047306258  0.047306258  0.045220457

  position of ions in fractional coordinates (direct lattice)
     0.552684359  0.500000000  0.630409391
     0.447315641  0.500000000  0.630409391

  ion indices of the primitive-cell ions
   primitive index   ion index
                 1           1
                 2           2

----------------------------------------------------------------------------------------



 KPOINTS: KPOINTS created by Atomic Simulation Env

Automatic generation of k-mesh.
 Grid dimensions read from file:
 generate k-points for:    1    1    1

 Generating k-lattice:

  Cartesian coordinates                     Fractional coordinates (reciprocal lattice)
     0.047306258  0.000000000  0.000000000     1.000000000  0.000000000  0.000000000
     0.000000000  0.047306258  0.000000000     0.000000000  1.000000000  0.000000000
     0.000000000  0.000000000  0.045220457     0.000000000  0.000000000  1.000000000

  Length of vectors
     0.047306258  0.047306258  0.045220457

  Shift w.r.t. Gamma in fractional coordinates (k-lattice)
     0.000000000  0.000000000  0.000000000

 
 Subroutine IBZKPT returns following result:
 ===========================================
 
 Found      1 irreducible k-points:
 
 Following reciprocal coordinates:
            Coordinates               Weight
  0.000000  0.000000  0.000000      1.000000
 
 Following cartesian coordinates:
            Coordinates               Weight
  0.000000  0.000000  0.000000      1.000000
 


--------------------------------------------------------------------------------------------------------




 Dimension of arrays:
   k-points           NKPTS =      1   k-points in BZ     NKDIM =      1   number of bands    NBANDS=    256
   number of dos      NEDOS =    301   number of ions     NIONS =      2
   non local maximal  LDIM  =      6   non local SUM 2l+1 LMDIM =     18
   total plane-waves  NPLWV = ******
   max r-space proj   IRMAX =   6628   max aug-charges    IRDMAX=  12805
   dimension x,y,z NGX =   160 NGY =  160 NGZ =  168
   dimension x,y,z NGXF=   320 NGYF=  320 NGZF=  336
   support grid    NGXF=   320 NGYF=  320 NGZF=  336
   ions per type =               2
   NGX,Y,Z   is equivalent  to a cutoff of  12.58, 12.58, 12.63 a.u.
   NGXF,Y,Z  is equivalent  to a cutoff of  25.17, 25.17, 25.26 a.u.

 SYSTEM =  MgO-rocksalt                            
 POSCAR =  Cu                                      

 Startparameter for this run:
   NWRITE =      2    write-flag & timer
   PREC   = accura    normal or accurate (medium, high low for compatibility)
   ISTART =      0    job   : 0-new  1-cont  2-samecut
   ICHARG =      2    charge: 1-file 2-atom 10-const
   ISPIN  =      1    spin polarized calculation?
   LNONCOLLINEAR =      F non collinear calculations
   LSORBIT =      F    spin-orbit coupling
   INIWAV =      1    electr: 0-lowe 1-rand  2-diag
   LASPH  =      T    aspherical Exc in radial PAW
 Electronic Relaxation 1
   ENCUT  =  520.0 eV  38.22 Ry    6.18 a.u.  39.30 39.30 41.12*2*pi/ulx,y,z
   ENINI  =  520.0     initial cutoff
   ENAUG  =  587.0 eV  augmentation charge cutoff
   NELM   =    200;   NELMIN=  8; NELMDL= -5     # of ELM steps 
   EDIFF  = 0.1E-05   stopping-criterion for ELM
   LREAL  =      T    real-space projection
   NLSPLINE    = F    spline interpolate recip. space projectors
   LCOMPAT=      F    compatible to vasp.4.4
   GGA_COMPAT  = T    GGA compatible to vasp.4.4-vasp.4.6
   LMAXPAW     = -100 max onsite density
   LMAXMIX     =    2 max onsite mixed and CHGCAR
   VOSKOWN=      0    Vosko Wilk Nusair interpolation
   ROPT   =   -0.00025
 Ionic relaxation
   EDIFFG = 0.1E-04   stopping-criterion for IOM
   NSW    =      0    number of steps for IOM
   NBLOCK =      1;   KBLOCK =      1    inner block; outer block 
   IBRION =     -1    ionic relax: 0-MD 1-quasi-New 2-CG
   NFREE  =      0    steps in history (QN), initial steepest desc. (CG)
   ISIF   =      2    stress and relaxation
   IWAVPR =     10    prediction:  0-non 1-charg 2-wave 3-comb
   ISYM   =      2    0-nonsym 1-usesym 2-fastsym
   LCORR  =      T    Harris-Foulkes like correction to forces

   POTIM  = 0.5000    time-step for ionic-motion
   TEIN   =    0.0    initial temperature
   TEBEG  =    0.0;   TEEND  =   0.0 temperature during run
   SMASS  =  -3.00    Nose mass-parameter (am)
   estimated Nose-frequenzy (Omega)   =  0.10E-29 period in steps = 0.13E+47 mass=  -0.102E-25a.u.
   SCALEE = 1.0000    scale energy and forces
   NPACO  =    256;   APACO  = 10.0  distance and # of slots for P.C.
   PSTRESS=    0.0 pullay stress

  Mass of Ions in am
   POMASS =  63.55
  Ionic Valenz
   ZVAL   =  11.00
  Atomic Wigner-Seitz radii
   RWIGS  =  -1.00
  virtual crystal weights 
   VCA    =   1.00
   NELECT =      22.0000    total number of electrons
   NUPDOWN=      -1.0000    fix difference up-down

 DOS related values:
   EMIN   =  10.00;   EMAX   =-10.00  energy-range for DOS
   EFERMI =   0.00
   ISMEAR =     0;   SIGMA  =   0.05  broadening in eV -4-tet -1-fermi 0-gaus

 Electronic relaxation 2 (details)
   IALGO  =     58    algorithm
   LDIAG  =      T    sub-space diagonalisation (order eigenvalues)
   LSUBROT=      F    optimize rotation matrix (better conditioning)
   TURBO    =      0    0=normal 1=particle mesh
   IRESTART =      0    0=no restart 2=restart with 2 vectors
   NREBOOT  =      0    no. of reboots
   NMIN     =      0    reboot dimension
   EREF     =   0.00    reference energy to select bands
   IMIX   =      4    mixing-type and parameters
     AMIX     =   0.40;   BMIX     =  1.00
     AMIX_MAG =   1.60;   BMIX_MAG =  1.00
     AMIN     =   0.10
     WC   =   100.;   INIMIX=   1;  MIXPRE=   1;  MAXMIX= -45

 Intra band minimization:
   WEIMIN = 0.0000     energy-eigenvalue tresh-hold
   EBREAK =  0.98E-09  absolut break condition
   DEPER  =   0.30     relativ break condition  

   TIME   =   0.40     timestep for ELM

  volume/ion in A,a.u.               =    4940.81     33342.21
  Fermi-wavevector in a.u.,A,eV,Ry     =   0.213767  0.403960  0.621734  0.045696
  Thomas-Fermi vector in A             =   0.985879

 Write flags
   LWAVE        =      F    write WAVECAR
   LDOWNSAMPLE  =      F    k-point downsampling of WAVECAR
   LCHARG       =      F    write CHGCAR
   LVTOT        =      F    write LOCPOT, total local potential
   LVHAR        =      F    write LOCPOT, Hartree potential only
   LELF         =      F    write electronic localiz. function (ELF)
   LORBIT       =      0    0 simple, 1 ext, 2 COOP (PROOUT), +10 PAW based schemes


 Dipole corrections
   LMONO  =      F    monopole corrections only (constant potential shift)
   LDIPOL =      T    correct potential (dipole corrections)
   IDIPOL =      3    1-x, 2-y, 3-z, 4-all directions 
   EPSILON=  1.0000000 bulk dielectric constant

 Exchange correlation treatment:
   GGA     =    MK    GGA type
   LEXCH   =    43    internal setting for exchange type
   LIBXC   =     F    Libxc                    
   VOSKOWN =     0    Vosko Wilk Nusair interpolation
   LHFCALC =     F    Hartree Fock is set to
   LHFONE  =     F    Hartree Fock one center treatment
   AEXX    =    0.0000 exact exchange contribution

 vdW DFT:
   LUSE_VDW   =     T    switch on vdW DFT
   Zab_VDW    =-.8491    correlation parameter
   PARAM1     =0.1234
   PARAM2     =1.0000
   PARAM3     =0.0000
   -- rVV10 --
   BPARAM     = 6.3000
   CPARAM     = 0.0093

 Linear response parameters
   LEPSILON=     F    determine dielectric tensor
   LRPA    =     F    only Hartree local field effects (RPA)
   LNABLA  =     F    use nabla operator in PAW spheres
   LVEL    =     F    velocity operator in full k-point grid
   CSHIFT  =0.1000    complex shift for real part using Kramers Kronig
   OMEGAMAX=  -1.0    maximum frequency
   DEG_THRESHOLD= 0.2000000E-02 threshold for treating states as degnerate
   RTIME   =   -0.100 relaxation time in fs
  (WPLASMAI=    0.000 imaginary part of plasma frequency in eV, 0.658/RTIME)
   DFIELD  = 0.0000000 0.0000000 0.0000000 field for delta impulse in time

  Optional k-point grid parameters
   LKPOINTS_OPT  =     F    use optional k-point grid
   KPOINTS_OPT_MODE=     1    mode for optional k-point grid

 Orbital magnetization related:
   ORBITALMAG=     F  switch on orbital magnetization
   LCHIMAG   =     F  perturbation theory with respect to B field
   DQ        =  0.001000  dq finite difference perturbation B field
   LLRAUG    =     F  two centre corrections for induced B field



--------------------------------------------------------------------------------------------------------


 Static calculation
 charge density and potential will be updated during run
 non-spin polarized calculation
 Conjugate gradient for all bands (Freysoldt, et al. PRB 79, 241103 (2009))
 preconditioned conjugated gradient                                        
 perform sub-space diagonalisation
    before iterative eigenvector-optimisation
 modified Broyden-mixing scheme, WC =      100.0
 initial mixing is a Kerker type mixing with AMIX =  0.4000 and BMIX =      1.0000
 Hartree-type preconditioning will be used
 using additional bands          245
 real space projection scheme for non local part
 use partial core corrections
 no Harris-corrections to forces 
 use gradient corrections 
 use of overlap-Matrix (Vanderbilt PP)
 Gauss-broadening in eV      SIGMA  =   0.05


--------------------------------------------------------------------------------------------------------


  energy-cutoff  :      520.00
  volume of cell :     9881.61
      direct lattice vectors                 reciprocal lattice vectors
    21.138852197  0.000000000  0.000000000     0.047306258  0.000000000  0.000000000
     0.000000000 21.138852197  0.000000000     0.000000000  0.047306258  0.000000000
     0.000000000  0.000000000 22.113885220     0.000000000  0.000000000  0.045220457

  length of vectors
    21.138852197 21.138852197 22.113885220     0.047306258  0.047306258  0.045220457



 k-points in units of 2pi/SCALE and weight: KPOINTS created by Atomic Simulation Env
   0.00000000  0.00000000  0.00000000       1.000

 k-points in reciprocal lattice and weights: KPOINTS created by Atomic Simulation Env
   0.00000000  0.00000000  0.00000000       1.000

 position of ions in fractional coordinates (direct lattice) 
   0.55268436  0.50000000  0.63040939
   0.44731564  0.50000000  0.63040939

 position of ions in cartesian coordinates  (Angst):
  11.68311298 10.56942610 13.94080092
   9.45573922 10.56942610 13.94080092



--------------------------------------------------------------------------------------------------------


 k-point   1 :   0.0000 0.0000 0.0000  plane waves:  265979

 maximum and minimum number of plane-waves per node :     66495    66494

 maximum number of plane-waves:    265979
 maximum index in each direction: 
   IXMAX=   39   IYMAX=   39   IZMAX=   41
   IXMIN=  -39   IYMIN=  -39   IZMIN=  -41


 real space projection operators:
  total allocation   :       1801.12 KBytes
  max/ min on nodes  :        457.59        443.81


 parallel 3D FFT for wavefunctions:
    minimum data exchange during FFTs selected (reduces bandwidth)
 parallel 3D FFT for charge:
    minimum data exchange during FFTs selected (reduces bandwidth)


 total amount of memory used by VASP MPI-rank0   117460. kBytes
=======================================================================

   base      :      30000. kBytes
   nonlr-proj:        770. kBytes
   fftplans  :      35177. kBytes
   grid      :      48291. kBytes
   one-center:         15. kBytes
   wavefun   :       3207. kBytes

     INWAV:  cpu time      0.0001: real time      0.0004
 Broyden mixing: mesh for mixing (old mesh)
   NGX = 79   NGY = 79   NGZ = 83
  (NGX  =320   NGY  =320   NGZ  =336)
  gives a total of 518003 points

 initial charge density was supplied:
 charge density of overlapping atoms calculated
 number of electron      22.0000000 magnetization 
 keeping initial charge density in first step


--------------------------------------------------------------------------------------------------------


 Maximum index for non-local projection operator         1578
 Maximum index for augmentation-charges            0 (set IRDMAX)


--------------------------------------------------------------------------------------------------------


 First call to EWALD:  gamma=   0.083
 Maximum number of real-space cells 3x 3x 3
 Maximum number of reciprocal cells 3x 3x 3

    FEWALD:  cpu time      0.0007: real time      0.0007


--------------------------------------- Iteration      1(   1)  ---------------------------------------


vdW kernel read from vdw_kernel.bindat
  0.0000  0.2424  0.5071  0.7962  1.1119  1.4567  1.8333  2.2446  2.6937  3.1842
  3.7199  4.3049  4.9438  5.6415  6.4036  7.2358  8.1446  9.1372 10.2212 11.4050
 12.6979 14.1099 15.6519 17.3360 19.1751 21.1837 23.3773 25.7729 28.3892 31.2465
 34.3669 37.7748 41.4965 45.5611 50.0000

    POTLOK:  cpu time     12.9480: real time     12.9547
    SETDIJ:  cpu time      0.5141: real time      0.5142
    TRIAL :  cpu time      2.7932: real time      2.7937
    CORREC:  cpu time      0.0013: real time      0.0013
    --------------------------------------------
      LOOP:  cpu time     16.2588: real time     16.2659

 eigenvalue-minimisations  :   512
 total energy-change (2. order) : 0.1118875E+03  (-0.5610475E+03)
 number of electron      22.0000000 magnetization 
 augmentation part       22.0000000 magnetization 

 DIPCOR: dipole corrections for dipol
 direction  3 min pos     1,
 dipolmoment           0.000000      0.000000     -0.000045 electrons x Angstroem
 Tr[quadrupol]     -4424.120142

 energy correction for charged system         0.000000 eV
 dipol+quadrupol energy correction           -0.000000 eV
 added-field ion interaction          0.000056 eV  (added to PSCEN)


 Free energy of the ion-electron system (eV)
  ---------------------------------------------------
  alpha Z        PSCENC =         0.29609220
  Ewald energy   TEWEN  =       323.80745390
  -Hartree energ DENC   =     -2865.96561022
  -exchange      EXHF   =         0.00000000
  -V(xc)+E(xc)   XCENC  =        88.22546327
  PAW double counting   =      2458.05918329    -2668.13968187
  entropy T*S    EENTRO =        -0.04021102
  eigenvalues    EBANDS =       -14.04890241
  atomic energy  EATOM  =      2789.69372454
  ---------------------------------------------------
  free energy    TOTEN  =       111.88751168 eV

  energy without entropy =      111.92772270  energy(sigma->0) =      111.90761719


--------------------------------------------------------------------------------------------------------




--------------------------------------- Iteration      1(   2)  ---------------------------------------


    TRIAL :  cpu time      3.0233: real time      3.0236
    CORREC:  cpu time      0.0010: real time      0.0010
    --------------------------------------------
      LOOP:  cpu time      3.0301: real time      3.0407

 eigenvalue-minimisations  :   512
 total energy-change (2. order) :-0.1082917E+03  (-0.1077204E+03)
 number of electron      22.0000000 magnetization 
 augmentation part       22.0000000 magnetization 

 DIPCOR: dipole corrections for dipol
 direction  3 min pos     1,
 dipolmoment           0.000000      0.000000     -0.000045 electrons x Angstroem
 Tr[quadrupol]     -4424.120142

 energy correction for charged system         0.000000 eV
 dipol+quadrupol energy correction           -0.000000 eV
 added-field ion interaction          0.000056 eV  (added to PSCEN)


 Free energy of the ion-electron system (eV)
  ---------------------------------------------------
  alpha Z        PSCENC =         0.29609220
  Ewald energy   TEWEN  =       323.80745390
  -Hartree energ DENC   =     -2865.96561022
  -exchange      EXHF   =         0.00000000
  -V(xc)+E(xc)   XCENC  =        88.22546327
  PAW double counting   =      2458.05918329    -2668.13968187
  entropy T*S    EENTRO =        -0.00000000
  eigenvalues    EBANDS =      -122.38080437
  atomic energy  EATOM  =      2789.69372454
  ---------------------------------------------------
  free energy    TOTEN  =         3.59582074 eV

  energy without entropy =        3.59582074  energy(sigma->0) =        3.59582074


--------------------------------------------------------------------------------------------------------




--------------------------------------- Iteration      1(   3)  ---------------------------------------


    TRIAL :  cpu time      2.9871: real time      2.9883
    CORREC:  cpu time      0.0003: real time      0.0003
    --------------------------------------------
      LOOP:  cpu time      2.9945: real time      3.0053

 eigenvalue-minimisations  :   512
 total energy-change (2. order) :-0.6558750E+00  (-0.6558750E+00)
 number of electron      22.0000000 magnetization 
 augmentation part       22.0000000 magnetization 

 DIPCOR: dipole corrections for dipol
 direction  3 min pos     1,
 dipolmoment           0.000000      0.000000     -0.000045 electrons x Angstroem
 Tr[quadrupol]     -4424.120142

 energy correction for charged system         0.000000 eV
 dipol+quadrupol energy correction           -0.000000 eV
 added-field ion interaction          0.000056 eV  (added to PSCEN)


 Free energy of the ion-electron system (eV)
  ---------------------------------------------------
  alpha Z        PSCENC =         0.29609220
  Ewald energy   TEWEN  =       323.80745390
  -Hartree energ DENC   =     -2865.96561022
  -exchange      EXHF   =         0.00000000
  -V(xc)+E(xc)   XCENC  =        88.22546327
  PAW double counting   =      2458.05918329    -2668.13968187
  entropy T*S    EENTRO =        -0.00000000
  eigenvalues    EBANDS =      -123.03667938
  atomic energy  EATOM  =      2789.69372454
  ---------------------------------------------------
  free energy    TOTEN  =         2.93994573 eV

  energy without entropy =        2.93994573  energy(sigma->0) =        2.93994573


--------------------------------------------------------------------------------------------------------




--------------------------------------- Iteration      1(   4)  ---------------------------------------


    TRIAL :  cpu time      2.9760: real time      2.9764
    CORREC:  cpu time      0.0004: real time      0.0004
    --------------------------------------------
      LOOP:  cpu time      2.9817: real time      2.9951

 eigenvalue-minimisations  :   512
 total energy-change (2. order) :-0.4669852E-02  (-0.4669852E-02)
 number of electron      22.0000000 magnetization 
 augmentation part       22.0000000 magnetization 

 DIPCOR: dipole corrections for dipol
 direction  3 min pos     1,
 dipolmoment           0.000000      0.000000     -0.000045 electrons x Angstroem
 Tr[quadrupol]     -4424.120142

 energy correction for charged system         0.000000 eV
 dipol+quadrupol energy correction           -0.000000 eV
 added-field ion interaction          0.000056 eV  (added to PSCEN)


 Free energy of the ion-electron system (eV)
  ---------------------------------------------------
  alpha Z        PSCENC =         0.29609220
  Ewald energy   TEWEN  =       323.80745390
  -Hartree energ DENC   =     -2865.96561022
  -exchange      EXHF   =         0.00000000
  -V(xc)+E(xc)   XCENC  =        88.22546327
  PAW double counting   =      2458.05918329    -2668.13968187
  entropy T*S    EENTRO =        -0.00000000
  eigenvalues    EBANDS =      -123.04134923
  atomic energy  EATOM  =      2789.69372454
  ---------------------------------------------------
  free energy    TOTEN  =         2.93527587 eV

  energy without entropy =        2.93527587  energy(sigma->0) =        2.93527587


--------------------------------------------------------------------------------------------------------




--------------------------------------- Iteration      1(   5)  ---------------------------------------


    TRIAL :  cpu time     15.7539: real time     15.7550
    CORREC:  cpu time      0.0003: real time      0.0003
    CHARGE:  cpu time      0.5349: real time      0.5360
    --------------------------------------------
      LOOP:  cpu time     16.2940: real time     16.3097

 eigenvalue-minimisations  :  1024
 total energy-change (2. order) :-0.5041709E-04  (-0.5041707E-04)
 number of electron      22.0000044 magnetization 
 augmentation part       14.0874900 magnetization 

 DIPCOR: dipole corrections for dipol
 direction  3 min pos     1,
 dipolmoment           0.000000      0.000000     -0.000045 electrons x Angstroem
 Tr[quadrupol]     -4424.120142

 energy correction for charged system         0.000000 eV
 dipol+quadrupol energy correction           -0.000000 eV
 added-field ion interaction          0.000056 eV  (added to PSCEN)


 Free energy of the ion-electron system (eV)
  ---------------------------------------------------
  alpha Z        PSCENC =         0.29609220
  Ewald energy   TEWEN  =       323.80745390
  -Hartree energ DENC   =     -2865.96561022
  -exchange      EXHF   =         0.00000000
  -V(xc)+E(xc)   XCENC  =        88.22546327
  PAW double counting   =      2458.05918329    -2668.13968187
  entropy T*S    EENTRO =        -0.00000000
  eigenvalues    EBANDS =      -123.04139965
  atomic energy  EATOM  =      2789.69372454
  ---------------------------------------------------
  free energy    TOTEN  =         2.93522546 eV

  energy without entropy =        2.93522546  energy(sigma->0) =        2.93522546


--------------------------------------------------------------------------------------------------------




--------------------------------------- Iteration      1(   6)  ---------------------------------------


    POTLOK:  cpu time     12.5728: real time     12.5738
    SETDIJ:  cpu time      0.0889: real time      0.0889
    TRIAL :  cpu time     26.2362: real time     26.2382
    CORREC:  cpu time     13.4764: real time     13.4774
    CHARGE:  cpu time      0.5260: real time      0.5260
    --------------------------------------------
      LOOP:  cpu time     52.9202: real time     52.9248

 eigenvalue-minimisations  :     0
 total energy-change (2. order) : 0.1034632E+01  (-0.2886452E+00)
 number of electron      22.0000045 magnetization 
 augmentation part       14.2921081 magnetization 

 DIPCOR: dipole corrections for dipol
 direction  3 min pos     1,
 dipolmoment           0.000000      0.000000     -0.001373 electrons x Angstroem
 Tr[quadrupol]     -4424.282573

 energy correction for charged system         0.000000 eV
 dipol+quadrupol energy correction           -0.000000 eV
 added-field ion interaction          0.001723 eV  (added to PSCEN)


 Free energy of the ion-electron system (eV)
  ---------------------------------------------------
  alpha Z        PSCENC =         0.29602009
  Ewald energy   TEWEN  =       323.80745390
  -Hartree energ DENC   =     -2863.27631821
  -exchange      EXHF   =         0.00000000
  -V(xc)+E(xc)   XCENC  =        87.27680097
  PAW double counting   =      2532.21440129    -2738.85564426
  entropy T*S    EENTRO =        -0.00000000
  eigenvalues    EBANDS =      -127.18658076
  atomic energy  EATOM  =      2789.69372454
  ---------------------------------------------------
  free energy    TOTEN  =         3.96985755 eV

  energy without entropy =        3.96985755  energy(sigma->0) =        3.96985755


--------------------------------------------------------------------------------------------------------




--------------------------------------- Iteration      1(   7)  ---------------------------------------


    POTLOK:  cpu time     12.6347: real time     12.6353
    SETDIJ:  cpu time      0.1586: real time      0.1586
    TRIAL :  cpu time      0.3542: real time      0.3543
    CORREC:  cpu time     13.6798: real time     13.6809
    CHARGE:  cpu time      0.5294: real time      0.5295
    --------------------------------------------
      LOOP:  cpu time     27.3640: real time     27.3772

 eigenvalue-minimisations  :     0
 total energy-change (2. order) :-0.2798169E+00  (-0.2351527E+00)
 number of electron      22.0000045 magnetization 
 augmentation part       14.2413027 magnetization 

 DIPCOR: dipole corrections for dipol
 direction  3 min pos     1,
 dipolmoment           0.000000      0.000000     -0.000466 electrons x Angstroem
 Tr[quadrupol]     -4424.111678

 energy correction for charged system         0.000000 eV
 dipol+quadrupol energy correction           -0.000000 eV
 added-field ion interaction          0.000585 eV  (added to PSCEN)


 Free energy of the ion-electron system (eV)
  ---------------------------------------------------
  alpha Z        PSCENC =         0.29626331
  Ewald energy   TEWEN  =       323.80745390
  -Hartree energ DENC   =     -2886.19618772
  -exchange      EXHF   =         0.00000000
  -V(xc)+E(xc)   XCENC  =        88.31920381
  PAW double counting   =      2544.53557389    -2758.95056898
  entropy T*S    EENTRO =        -0.00000000
  eigenvalues    EBANDS =       -97.81542207
  atomic energy  EATOM  =      2789.69372454
  ---------------------------------------------------
  free energy    TOTEN  =         3.69004070 eV

  energy without entropy =        3.69004070  energy(sigma->0) =        3.69004070


--------------------------------------------------------------------------------------------------------




--------------------------------------- Iteration      1(   8)  ---------------------------------------


    POTLOK:  cpu time     12.7456: real time     12.7466
    SETDIJ:  cpu time      0.2632: real time      0.2632
    TRIAL :  cpu time      0.3478: real time      0.3478
    CORREC:  cpu time     13.6796: real time     13.6807
    CHARGE:  cpu time      0.5263: real time      0.5263
    --------------------------------------------
      LOOP:  cpu time     27.5769: real time     27.5794

 eigenvalue-minimisations  :     0
 total energy-change (2. order) :-0.2346114E+00  (-0.4699060E-01)
 number of electron      22.0000045 magnetization 
 augmentation part       14.2846066 magnetization 

 DIPCOR: dipole corrections for dipol
 direction  3 min pos     1,
 dipolmoment           0.000000      0.000000     -0.000317 electrons x Angstroem
 Tr[quadrupol]     -4424.133790

 energy correction for charged system         0.000000 eV
 dipol+quadrupol energy correction           -0.000000 eV
 added-field ion interaction          0.000398 eV  (added to PSCEN)


 Free energy of the ion-electron system (eV)
  ---------------------------------------------------
  alpha Z        PSCENC =         0.29677583
  Ewald energy   TEWEN  =       323.80745390
  -Hartree energ DENC   =     -2868.96372022
  -exchange      EXHF   =         0.00000000
  -V(xc)+E(xc)   XCENC  =        87.86263997
  PAW double counting   =      2529.88625615    -2741.26005907
  entropy T*S    EENTRO =        -0.00000000
  eigenvalues    EBANDS =      -117.86764179
  atomic energy  EATOM  =      2789.69372454
  ---------------------------------------------------
  free energy    TOTEN  =         3.45542930 eV

  energy without entropy =        3.45542930  energy(sigma->0) =        3.45542930


--------------------------------------------------------------------------------------------------------




--------------------------------------- Iteration      1(   9)  ---------------------------------------


    POTLOK:  cpu time     12.6465: real time     12.6476
    SETDIJ:  cpu time      0.4785: real time      0.4785
    TRIAL :  cpu time      0.3448: real time      0.3448
    CORREC:  cpu time     13.7006: real time     13.7012
    CHARGE:  cpu time      0.5283: real time      0.5283
    --------------------------------------------
      LOOP:  cpu time     27.7044: real time     27.7187

 eigenvalue-minimisations  :     0
 total energy-change (2. order) :-0.4722803E-01  (-0.1299473E-01)
 number of electron      22.0000045 magnetization 
 augmentation part       14.2492087 magnetization 

 DIPCOR: dipole corrections for dipol
 direction  3 min pos     1,
 dipolmoment           0.000000      0.000000     -0.000031 electrons x Angstroem
 Tr[quadrupol]     -4424.129196

 energy correction for charged system         0.000000 eV
 dipol+quadrupol energy correction           -0.000000 eV
 added-field ion interaction          0.000039 eV  (added to PSCEN)


 Free energy of the ion-electron system (eV)
  ---------------------------------------------------
  alpha Z        PSCENC =         0.29635298
  Ewald energy   TEWEN  =       323.80745390
  -Hartree energ DENC   =     -2874.71098070
  -exchange      EXHF   =         0.00000000
  -V(xc)+E(xc)   XCENC  =        88.11044086
  PAW double counting   =      2535.55950629    -2748.36537043
  entropy T*S    EENTRO =        -0.00000000
  eigenvalues    EBANDS =      -110.98292617
  atomic energy  EATOM  =      2789.69372454
  ---------------------------------------------------
  free energy    TOTEN  =         3.40820127 eV

  energy without entropy =        3.40820127  energy(sigma->0) =        3.40820127


--------------------------------------------------------------------------------------------------------




--------------------------------------- Iteration      1(  10)  ---------------------------------------


    POTLOK:  cpu time     12.7802: real time     12.7812
    SETDIJ:  cpu time      0.2869: real time      0.2869
    TRIAL :  cpu time      0.3459: real time      0.3459
    CORREC:  cpu time     13.1565: real time     13.1587
    CHARGE:  cpu time      0.5279: real time      0.5279
    --------------------------------------------
      LOOP:  cpu time     27.1171: real time     27.1209

 eigenvalue-minimisations  :     0
 total energy-change (2. order) :-0.1297618E-01  (-0.1191664E-01)
 number of electron      22.0000045 magnetization 
 augmentation part       14.2684196 magnetization 

 DIPCOR: dipole corrections for dipol
 direction  3 min pos     1,
 dipolmoment           0.000000      0.000000     -0.000007 electrons x Angstroem
 Tr[quadrupol]     -4424.144579

 energy correction for charged system         0.000000 eV
 dipol+quadrupol energy correction           -0.000000 eV
 added-field ion interaction          0.000009 eV  (added to PSCEN)


 Free energy of the ion-electron system (eV)
  ---------------------------------------------------
  alpha Z        PSCENC =         0.29615651
  Ewald energy   TEWEN  =       323.80745390
  -Hartree energ DENC   =     -2870.02110814
  -exchange      EXHF   =         0.00000000
  -V(xc)+E(xc)   XCENC  =        87.91830978
  PAW double counting   =      2533.15696488    -2744.40814750
  entropy T*S    EENTRO =        -0.00000000
  eigenvalues    EBANDS =      -117.04812888
  atomic energy  EATOM  =      2789.69372454
  ---------------------------------------------------
  free energy    TOTEN  =         3.39522510 eV

  energy without entropy =        3.39522510  energy(sigma->0) =        3.39522510


--------------------------------------------------------------------------------------------------------




--------------------------------------- Iteration      1(  11)  ---------------------------------------


    POTLOK:  cpu time     12.6531: real time     12.6543
    SETDIJ:  cpu time      0.2576: real time      0.2576
    TRIAL :  cpu time      0.3457: real time      0.3457
    CORREC:  cpu time     13.6819: real time     13.6833
    CHARGE:  cpu time      0.5251: real time      0.5251
    --------------------------------------------
      LOOP:  cpu time     27.4693: real time     27.4857

 eigenvalue-minimisations  :     0
 total energy-change (2. order) :-0.1197291E-01  (-0.1472563E-02)
 number of electron      22.0000045 magnetization 
 augmentation part       14.2590427 magnetization 

 DIPCOR: dipole corrections for dipol
 direction  3 min pos     1,
 dipolmoment           0.000000      0.000000      0.000011 electrons x Angstroem
 Tr[quadrupol]     -4424.141812

 energy correction for charged system         0.000000 eV
 dipol+quadrupol energy correction           -0.000000 eV
 added-field ion interaction         -0.000014 eV  (added to PSCEN)


 Free energy of the ion-electron system (eV)
  ---------------------------------------------------
  alpha Z        PSCENC =         0.29602906
  Ewald energy   TEWEN  =       323.80745390
  -Hartree energ DENC   =     -2872.00226483
  -exchange      EXHF   =         0.00000000
  -V(xc)+E(xc)   XCENC  =        88.01101061
  PAW double counting   =      2533.91413935    -2745.65719214
  entropy T*S    EENTRO =        -0.00000000
  eigenvalues    EBANDS =      -114.67964830
  atomic energy  EATOM  =      2789.69372454
  ---------------------------------------------------
  free energy    TOTEN  =         3.38325218 eV

  energy without entropy =        3.38325218  energy(sigma->0) =        3.38325218


--------------------------------------------------------------------------------------------------------




--------------------------------------- Iteration      1(  12)  ---------------------------------------


    POTLOK:  cpu time     12.4286: real time     12.4297
    SETDIJ:  cpu time      0.2660: real time      0.2660
    TRIAL :  cpu time      0.3443: real time      0.3443
    CORREC:  cpu time     13.6725: real time     13.6734
    CHARGE:  cpu time      0.5289: real time      0.5289
    --------------------------------------------
      LOOP:  cpu time     27.2464: real time     27.2621

 eigenvalue-minimisations  :     0
 total energy-change (2. order) :-0.1472101E-02  (-0.8832179E-03)
 number of electron      22.0000045 magnetization 
 augmentation part       14.2679268 magnetization 

 DIPCOR: dipole corrections for dipol
 direction  3 min pos     1,
 dipolmoment           0.000000      0.000000      0.000012 electrons x Angstroem
 Tr[quadrupol]     -4424.143958

 energy correction for charged system         0.000000 eV
 dipol+quadrupol energy correction           -0.000000 eV
 added-field ion interaction         -0.000015 eV  (added to PSCEN)


 Free energy of the ion-electron system (eV)
  ---------------------------------------------------
  alpha Z        PSCENC =         0.29602090
  Ewald energy   TEWEN  =       323.80745390
  -Hartree energ DENC   =     -2870.36206977
  -exchange      EXHF   =         0.00000000
  -V(xc)+E(xc)   XCENC  =        87.94809773
  PAW double counting   =      2532.56296268    -2743.88329468
  entropy T*S    EENTRO =        -0.00000000
  eigenvalues    EBANDS =      -116.68111522
  atomic energy  EATOM  =      2789.69372454
  ---------------------------------------------------
  free energy    TOTEN  =         3.38178008 eV

  energy without entropy =        3.38178008  energy(sigma->0) =        3.38178008


--------------------------------------------------------------------------------------------------------




--------------------------------------- Iteration      1(  13)  ---------------------------------------


    POTLOK:  cpu time     12.6280: real time     12.6293
    SETDIJ:  cpu time      0.1867: real time      0.1867
    TRIAL :  cpu time      0.3462: real time      0.3462
    CORREC:  cpu time     13.5775: real time     13.5785
    CHARGE:  cpu time      0.5280: real time      0.5280
    --------------------------------------------
      LOOP:  cpu time     27.2721: real time     27.2837

 eigenvalue-minimisations  :     0
 total energy-change (2. order) :-0.8817124E-03  (-0.1965959E-03)
 number of electron      22.0000045 magnetization 
 augmentation part       14.2667414 magnetization 

 DIPCOR: dipole corrections for dipol
 direction  3 min pos     1,
 dipolmoment           0.000000      0.000000      0.000012 electrons x Angstroem
 Tr[quadrupol]     -4424.142637

 energy correction for charged system         0.000000 eV
 dipol+quadrupol energy correction           -0.000000 eV
 added-field ion interaction         -0.000016 eV  (added to PSCEN)


 Free energy of the ion-electron system (eV)
  ---------------------------------------------------
  alpha Z        PSCENC =         0.29602074
  Ewald energy   TEWEN  =       323.80745390
  -Hartree energ DENC   =     -2871.25782710
  -exchange      EXHF   =         0.00000000
  -V(xc)+E(xc)   XCENC  =        87.98834276
  PAW double counting   =      2532.88652557    -2744.52932247
  entropy T*S    EENTRO =        -0.00000000
  eigenvalues    EBANDS =      -115.50401957
  atomic energy  EATOM  =      2789.69372454
  ---------------------------------------------------
  free energy    TOTEN  =         3.38089837 eV

  energy without entropy =        3.38089837  energy(sigma->0) =        3.38089837


--------------------------------------------------------------------------------------------------------




--------------------------------------- Iteration      1(  14)  ---------------------------------------


    POTLOK:  cpu time     12.9158: real time     12.9163
    SETDIJ:  cpu time      0.1405: real time      0.1405
    TRIAL :  cpu time      0.3421: real time      0.3421
    CORREC:  cpu time     13.5255: real time     13.5264
    CHARGE:  cpu time      0.5282: real time      0.5282
    --------------------------------------------
      LOOP:  cpu time     27.4689: real time     27.4710

 eigenvalue-minimisations  :     0
 total energy-change (2. order) :-0.1965981E-03  (-0.2913171E-04)
 number of electron      22.0000045 magnetization 
 augmentation part       14.2684191 magnetization 

 DIPCOR: dipole corrections for dipol
 direction  3 min pos     1,
 dipolmoment           0.000000      0.000000      0.000012 electrons x Angstroem
 Tr[quadrupol]     -4424.143739

 energy correction for charged system         0.000000 eV
 dipol+quadrupol energy correction           -0.000000 eV
 added-field ion interaction         -0.000016 eV  (added to PSCEN)


 Free energy of the ion-electron system (eV)
  ---------------------------------------------------
  alpha Z        PSCENC =         0.29602025
  Ewald energy   TEWEN  =       323.80745390
  -Hartree energ DENC   =     -2871.12373087
  -exchange      EXHF   =         0.00000000
  -V(xc)+E(xc)   XCENC  =        87.98184818
  PAW double counting   =      2532.84321682    -2744.43522395
  entropy T*S    EENTRO =        -0.00000000
  eigenvalues    EBANDS =      -115.68260711
  atomic energy  EATOM  =      2789.69372454
  ---------------------------------------------------
  free energy    TOTEN  =         3.38070177 eV

  energy without entropy =        3.38070177  energy(sigma->0) =        3.38070177


--------------------------------------------------------------------------------------------------------




--------------------------------------- Iteration      1(  15)  ---------------------------------------


    POTLOK:  cpu time     12.9098: real time     12.9108
    SETDIJ:  cpu time      0.1511: real time      0.1511
    TRIAL :  cpu time      0.3435: real time      0.3435
    CORREC:  cpu time     13.5866: real time     13.5877
    CHARGE:  cpu time      0.5282: real time      0.5283
    --------------------------------------------
      LOOP:  cpu time     27.5241: real time     27.5359

 eigenvalue-minimisations  :     0
 total energy-change (2. order) :-0.2910961E-04  (-0.2142003E-04)
 number of electron      22.0000045 magnetization 
 augmentation part       14.2673752 magnetization 

 DIPCOR: dipole corrections for dipol
 direction  3 min pos     1,
 dipolmoment           0.000000      0.000000      0.000012 electrons x Angstroem
 Tr[quadrupol]     -4424.143252

 energy correction for charged system         0.000000 eV
 dipol+quadrupol energy correction           -0.000000 eV
 added-field ion interaction         -0.000016 eV  (added to PSCEN)


 Free energy of the ion-electron system (eV)
  ---------------------------------------------------
  alpha Z        PSCENC =         0.29602027
  Ewald energy   TEWEN  =       323.80745390
  -Hartree energ DENC   =     -2871.36419990
  -exchange      EXHF   =         0.00000000
  -V(xc)+E(xc)   XCENC  =        87.99160819
  PAW double counting   =      2533.02843861    -2744.68403962
  entropy T*S    EENTRO =        -0.00000000
  eigenvalues    EBANDS =      -115.38833334
  atomic energy  EATOM  =      2789.69372454
  ---------------------------------------------------
  free energy    TOTEN  =         3.38067266 eV

  energy without entropy =        3.38067266  energy(sigma->0) =        3.38067266


--------------------------------------------------------------------------------------------------------




--------------------------------------- Iteration      1(  16)  ---------------------------------------


    POTLOK:  cpu time     12.8238: real time     12.8247
    SETDIJ:  cpu time      0.5182: real time      0.5182
    TRIAL :  cpu time      0.3433: real time      0.3433
    CORREC:  cpu time     13.6122: real time     13.6133
    CHARGE:  cpu time      0.5290: real time      0.5291
    --------------------------------------------
      LOOP:  cpu time     27.8327: real time     27.8444

 eigenvalue-minimisations  :     0
 total energy-change (2. order) :-0.2142629E-04  (-0.4313891E-05)
 number of electron      22.0000045 magnetization 
 augmentation part       14.2676601 magnetization 

 DIPCOR: dipole corrections for dipol
 direction  3 min pos     1,
 dipolmoment           0.000000      0.000000      0.000012 electrons x Angstroem
 Tr[quadrupol]     -4424.143331

 energy correction for charged system         0.000000 eV
 dipol+quadrupol energy correction           -0.000000 eV
 added-field ion interaction         -0.000016 eV  (added to PSCEN)


 Free energy of the ion-electron system (eV)
  ---------------------------------------------------
  alpha Z        PSCENC =         0.29602024
  Ewald energy   TEWEN  =       323.80745390
  -Hartree energ DENC   =     -2871.24240126
  -exchange      EXHF   =         0.00000000
  -V(xc)+E(xc)   XCENC  =        87.98644845
  PAW double counting   =      2532.99519633    -2744.60600294
  entropy T*S    EENTRO =        -0.00000000
  eigenvalues    EBANDS =      -115.54978803
  atomic energy  EATOM  =      2789.69372454
  ---------------------------------------------------
  free energy    TOTEN  =         3.38065123 eV

  energy without entropy =        3.38065123  energy(sigma->0) =        3.38065123


--------------------------------------------------------------------------------------------------------




--------------------------------------- Iteration      1(  17)  ---------------------------------------


    POTLOK:  cpu time     12.4870: real time     12.4887
    SETDIJ:  cpu time      0.5800: real time      0.5800
    TRIAL :  cpu time      0.3426: real time      0.3427
    CORREC:  cpu time     13.5899: real time     13.5909
    CHARGE:  cpu time      0.5290: real time      0.5290
    --------------------------------------------
      LOOP:  cpu time     27.5467: real time     27.5498

 eigenvalue-minimisations  :     0
 total energy-change (2. order) :-0.4327745E-05  (-0.7317070E-06)
 number of electron      22.0000045 magnetization 
 augmentation part       14.2673662 magnetization 

 DIPCOR: dipole corrections for dipol
 direction  3 min pos     1,
 dipolmoment           0.000000      0.000000      0.000013 electrons x Angstroem
 Tr[quadrupol]     -4424.143053

 energy correction for charged system         0.000000 eV
 dipol+quadrupol energy correction           -0.000000 eV
 added-field ion interaction         -0.000016 eV  (added to PSCEN)


 Free energy of the ion-electron system (eV)
  ---------------------------------------------------
  alpha Z        PSCENC =         0.29602019
  Ewald energy   TEWEN  =       323.80745390
  -Hartree energ DENC   =     -2871.28389792
  -exchange      EXHF   =         0.00000000
  -V(xc)+E(xc)   XCENC  =        87.98799169
  PAW double counting   =      2533.03667451    -2744.66034060
  entropy T*S    EENTRO =        -0.00000000
  eigenvalues    EBANDS =      -115.49697940
  atomic energy  EATOM  =      2789.69372454
  ---------------------------------------------------
  free energy    TOTEN  =         3.38064691 eV

  energy without entropy =        3.38064691  energy(sigma->0) =        3.38064691


--------------------------------------------------------------------------------------------------------




--------------------------------------- Iteration      1(  18)  ---------------------------------------


    POTLOK:  cpu time     12.3145: real time     12.3154
    SETDIJ:  cpu time      0.3422: real time      0.3422
    TRIAL :  cpu time      0.3409: real time      0.3410
    CORREC:  cpu time     13.5865: real time     13.5884
    EDDIAG:  cpu time      0.1610: real time      0.1612
    CHARGE:  cpu time      0.5274: real time      0.5274
    --------------------------------------------
      LOOP:  cpu time     27.2773: real time     27.2932

 eigenvalue-minimisations  :     0
 total energy-change (2. order) :-0.7436938E-06  (-0.4401686E-06)
 number of electron      22.0000045 magnetization 
 augmentation part       14.2674840 magnetization 

 DIPCOR: dipole corrections for dipol
 direction  3 min pos     1,
 dipolmoment           0.000000      0.000000      0.000013 electrons x Angstroem
 Tr[quadrupol]     -4424.143154

 energy correction for charged system         0.000000 eV
 dipol+quadrupol energy correction           -0.000000 eV
 added-field ion interaction         -0.000016 eV  (added to PSCEN)


 Free energy of the ion-electron system (eV)
  ---------------------------------------------------
  alpha Z        PSCENC =         0.29602017
  Ewald energy   TEWEN  =       323.80745390
  -Hartree energ DENC   =     -2871.24209750
  -exchange      EXHF   =         0.00000000
  -V(xc)+E(xc)   XCENC  =        87.98629699
  PAW double counting   =      2533.01082542    -2744.62323009
  entropy T*S    EENTRO =        -0.00000000
  eigenvalues    EBANDS =      -115.54834727
  atomic energy  EATOM  =      2789.69372454
  ---------------------------------------------------
  free energy    TOTEN  =         3.38064616 eV

  energy without entropy =        3.38064616  energy(sigma->0) =        3.38064616


--------------------------------------------------------------------------------------------------------


  average scaling for gradient   1.2207


 average (electrostatic) potential at core
  the test charge radii are     0.9430
  (the norm of the test charge is              1.0000)
       1 -73.5137       2 -73.5137



 E-fermi :  -4.5161     XC(G=0):  -0.2744     alpha+bet : -0.0321

 Fermi energy:        -4.5161188526

 k-point     1 :       0.0000    0.0000    0.0000
  band No.  band energies     occupation 
      1      -6.5167      2.00000
      2      -5.7059      2.00000
      3      -5.7059      2.00000
      4      -5.2324      2.00000
      5      -5.1799      2.00000
      6      -5.1798      2.00000
      7      -4.9563      2.00000
      8      -4.9563      2.00000
      9      -4.7870      2.00000
     10      -4.7870      2.00000
     11      -4.7604      2.00000
     12      -3.2188      0.00000
     13      -1.2225      0.00000
     14      -1.2214      0.00000
     15      -0.7735      0.00000
     16      -0.1811      0.00000
     17       0.0038      0.00000
     18       0.0062      0.00000
     19       0.0184      0.00000
     20       0.1287      0.00000
     21       0.1438      0.00000
     22       0.2024      0.00000
     23       0.2052      0.00000
     24       0.2381      0.00000
     25       0.4149      0.00000
     26       0.4374      0.00000
     27       0.4592      0.00000
     28       0.4722      0.00000
     29       0.4827      0.00000
     30       0.5004      0.00000
     31       0.5329      0.00000
     32       0.5436      0.00000
     33       0.5510      0.00000
     34       0.5576      0.00000
     35       0.7398      0.00000
     36       0.7622      0.00000
     37       0.7845      0.00000
     38       0.7983      0.00000
     39       0.8176      0.00000
     40       0.8226      0.00000
     41       0.8412      0.00000
     42       0.8602      0.00000
     43       0.8720      0.00000
     44       0.9962      0.00000
     45       1.0015      0.00000
     46       1.0669      0.00000
     47       1.1119      0.00000
     48       1.1193      0.00000
     49       1.1748      0.00000
     50       1.2242      0.00000
     51       1.2773      0.00000
     52       1.3025      0.00000
     53       1.3298      0.00000
     54       1.3310      0.00000
     55       1.3521      0.00000
     56       1.3653      0.00000
     57       1.3863      0.00000
     58       1.3966      0.00000
     59       1.4004      0.00000
     60       1.4278      0.00000
     61       1.4279      0.00000
     62       1.4329      0.00000
     63       1.4626      0.00000
     64       1.4994      0.00000
     65       1.5091      0.00000
     66       1.5336      0.00000
     67       1.5404      0.00000
     68       1.5743      0.00000
     69       1.5806      0.00000
     70       1.6099      0.00000
     71       1.6220      0.00000
     72       1.6242      0.00000
     73       1.6323      0.00000
     74       1.6641      0.00000
     75       1.6846      0.00000
     76       1.7147      0.00000
     77       1.7269      0.00000
     78       1.7828      0.00000
     79       1.8038      0.00000
     80       1.8063      0.00000
     81       1.8098      0.00000
     82       1.8229      0.00000
     83       1.8364      0.00000
     84       1.8396      0.00000
     85       1.8398      0.00000
     86       1.8463      0.00000
     87       1.8653      0.00000
     88       1.8655      0.00000
     89       1.8698      0.00000
     90       1.8722      0.00000
     91       1.8745      0.00000
     92       1.8942      0.00000
     93       1.8948      0.00000
     94       1.8956      0.00000
     95       1.9105      0.00000
     96       1.9107      0.00000
     97       2.0396      0.00000
     98       2.0950      0.00000
     99       2.2616      0.00000
    100       2.2638      0.00000
    101       2.2725      0.00000
    102       2.2746      0.00000
    103       2.3392      0.00000
    104       2.3446      0.00000
    105       2.3454      0.00000
    106       2.3471      0.00000
    107       2.3654      0.00000
    108       2.3785      0.00000
    109       2.4398      0.00000
    110       2.5270      0.00000
    111       2.5752      0.00000
    112       2.5922      0.00000
    113       2.5933      0.00000
    114       2.5972      0.00000
    115       2.6037      0.00000
    116       2.6565      0.00000
    117       2.6589      0.00000
    118       2.7069      0.00000
    119       2.7251      0.00000
    120       2.7446      0.00000
    121       2.7481      0.00000
    122       2.7624      0.00000
    123       2.7680      0.00000
    124       2.7697      0.00000
    125       2.7857      0.00000
    126       2.8042      0.00000
    127       2.8081      0.00000
    128       2.8086      0.00000
    129       2.8167      0.00000
    130       2.8185      0.00000
    131       2.8225      0.00000
    132       2.8319      0.00000
    133       2.8426      0.00000
    134       2.8472      0.00000
    135       2.8484      0.00000
    136       2.8625      0.00000
    137       2.8750      0.00000
    138       2.8829      0.00000
    139       2.8935      0.00000
    140       2.8977      0.00000
    141       2.9082      0.00000
    142       2.9410      0.00000
    143       2.9582      0.00000
    144       2.9810      0.00000
    145       2.9930      0.00000
    146       3.0096      0.00000
    147       3.0107      0.00000
    148       3.0182      0.00000
    149       3.0344      0.00000
    150       3.0819      0.00000
    151       3.0831      0.00000
    152       3.0982      0.00000
    153       3.1285      0.00000
    154       3.1594      0.00000
    155       3.1690      0.00000
    156       3.1978      0.00000
    157       3.2074      0.00000
    158       3.2153      0.00000
    159       3.2273      0.00000
    160       3.2292      0.00000
    161       3.2298      0.00000
    162       3.2460      0.00000
    163       3.2614      0.00000
    164       3.2634      0.00000
    165       3.3077      0.00000
    166       3.3110      0.00000
    167       3.3368      0.00000
    168       3.3557      0.00000
    169       3.3635      0.00000
    170       3.3755      0.00000
    171       3.4012      0.00000
    172       3.4520      0.00000
    173       3.4796      0.00000
    174       3.4958      0.00000
    175       3.5104      0.00000
    176       3.5199      0.00000
    177       3.5201      0.00000
    178       3.5239      0.00000
    179       3.5329      0.00000
    180       3.5340      0.00000
    181       3.5395      0.00000
    182       3.5412      0.00000
    183       3.5501      0.00000
    184       3.5585      0.00000
    185       3.5660      0.00000
    186       3.5750      0.00000
    187       3.5813      0.00000
    188       3.6141      0.00000
    189       3.6883      0.00000
    190       3.6926      0.00000
    191       3.7478      0.00000
    192       3.7587      0.00000
    193       3.7590      0.00000
    194       3.7650      0.00000
    195       3.7828      0.00000
    196       3.8193      0.00000
    197       3.8212      0.00000
    198       3.8271      0.00000
    199       3.8331      0.00000
    200       3.8336      0.00000
    201       3.9080      0.00000
    202       3.9511      0.00000
    203       3.9602      0.00000
    204       3.9672      0.00000
    205       3.9921      0.00000
    206       4.0178      0.00000
    207       4.0187      0.00000
    208       4.0344      0.00000
    209       4.0536      0.00000
    210       4.0680      0.00000
    211       4.0730      0.00000
    212       4.0734      0.00000
    213       4.0992      0.00000
    214       4.1208      0.00000
    215       4.1409      0.00000
    216       4.1529      0.00000
    217       4.1552      0.00000
    218       4.1685      0.00000
    219       4.1768      0.00000
    220       4.2049      0.00000
    221       4.2056      0.00000
    222       4.2376      0.00000
    223       4.2410      0.00000
    224       4.2535      0.00000
    225       4.2664      0.00000
    226       4.2734      0.00000
    227       4.2742      0.00000
    228       4.2751      0.00000
    229       4.2869      0.00000
    230       4.2924      0.00000
    231       4.3084      0.00000
    232       4.3163      0.00000
    233       4.3221      0.00000
    234       4.3431      0.00000
    235       4.3506      0.00000
    236       4.3514      0.00000
    237       4.3847      0.00000
    238       4.3989      0.00000
    239       4.4006      0.00000
    240       4.4189      0.00000
    241       4.4218      0.00000
    242       4.4271      0.00000
    243       4.4272      0.00000
    244       4.4327      0.00000
    245       4.4331      0.00000
    246       4.4332      0.00000
    247       4.4552      0.00000
    248       4.4649      0.00000
    249       4.4663      0.00000
    250       4.4735      0.00000
    251       4.4833      0.00000
    252       4.4885      0.00000
    253       4.4971      0.00000
    254       4.5254      0.00000
    255       4.5269      0.00000
    256       4.5358      0.00000


--------------------------------------------------------------------------------------------------------


 soft charge-density along one line, spin component           1
         0         1         2         3         4         5         6         7         8         9
 total charge-density along one line

 pseudopotential strength for first ion, spin component:           1
-10.131  -0.000  -0.000   0.000   0.000   0.688   0.000   0.000
 -0.000 -10.062  -0.000   0.000  -0.000   0.000   0.636   0.000
 -0.000  -0.000 -10.088   0.000   0.045   0.000   0.000   0.655
  0.000   0.000   0.000 -10.131   0.000  -0.000  -0.000  -0.000
  0.000  -0.000   0.045   0.000 -10.140  -0.000   0.000  -0.033
  0.688   0.000   0.000  -0.000  -0.000   6.541  -0.000  -0.000
  0.000   0.636   0.000  -0.000   0.000  -0.000   6.572  -0.000
  0.000   0.000   0.655  -0.000  -0.033  -0.000  -0.000   6.561
 -0.000  -0.000  -0.000   0.688  -0.000   0.000   0.000   0.000
 -0.000   0.000  -0.033  -0.000   0.694   0.000  -0.000   0.019
 -0.000  -0.000  -0.006  -0.000   0.010  -0.000  -0.000  -0.003
 -0.000  -0.000  -0.010  -0.000   0.017  -0.000  -0.000  -0.006
  0.030  -0.000  -0.000   0.000  -0.000  -0.013  -0.000   0.000
  0.000   0.000  -0.000   0.030   0.000   0.000  -0.000   0.000
  0.000   0.000  -0.016  -0.000   0.028  -0.000   0.000   0.008
  0.031  -0.000  -0.000  -0.000  -0.000  -0.009  -0.000  -0.000
 -0.000   0.000  -0.000   0.031  -0.000   0.000   0.000   0.000
  0.000  -0.000  -0.017  -0.000   0.029   0.000   0.000   0.006
 total augmentation occupancy for first ion, spin component:           1
  1.982  -0.000   0.000   0.000   0.000  -0.001  -0.000   0.000   0.000   0.000   0.000   0.000  -0.051   0.000   0.000   0.044
 -0.000   1.991   0.000   0.000   0.000   0.000  -0.015   0.000   0.000   0.000   0.000   0.000  -0.000   0.000   0.000  -0.000
  0.000   0.000   1.985   0.000   0.009   0.000   0.000  -0.007   0.000  -0.014   0.064   0.000   0.000   0.000   0.063   0.000
  0.000   0.000   0.000   1.982   0.000   0.000   0.000   0.000  -0.001   0.000   0.000   0.000   0.000  -0.051   0.000   0.000
  0.000   0.000   0.009   0.000   1.974  -0.000   0.000  -0.014  -0.000   0.008  -0.111  -0.000   0.000   0.000  -0.109   0.000
 -0.001   0.000   0.000   0.000  -0.000   0.003  -0.000   0.000   0.000   0.000   0.000   0.000  -0.006   0.000   0.000   0.000
 -0.000  -0.015   0.000   0.000   0.000  -0.000   0.000   0.000   0.000   0.000  -0.000   0.000   0.000   0.000   0.000  -0.000
  0.000   0.000  -0.007   0.000  -0.014   0.000   0.000   0.002  -0.000  -0.004  -0.043   0.002   0.000  -0.000   0.011   0.000
  0.000   0.000   0.000  -0.001   0.000   0.000   0.000  -0.000   0.003  -0.000   0.000   0.000  -0.000  -0.006   0.000  -0.000
  0.000   0.000  -0.014   0.000   0.008   0.000   0.000  -0.004  -0.000   0.007   0.075  -0.003   0.000   0.000  -0.019   0.000
  0.000   0.000   0.064   0.000  -0.111   0.000  -0.000  -0.043   0.000   0.075   1.468  -0.057   0.000   0.000  -0.251   0.000
  0.000   0.000   0.000  -0.000  -0.000   0.000   0.000   0.002   0.000  -0.003  -0.057   0.002   0.000   0.000   0.011   0.000
 -0.051  -0.000   0.000   0.000   0.000  -0.006   0.000   0.000  -0.000   0.000   0.000   0.000   0.014  -0.000   0.000  -0.002
  0.000   0.000   0.000  -0.051  -0.000   0.000   0.000   0.000  -0.006   0.000   0.000   0.000  -0.000   0.014   0.000   0.000
  0.000   0.000   0.063  -0.000  -0.109   0.000   0.000   0.011   0.000  -0.019  -0.251   0.011   0.000   0.000   0.063   0.000
  0.044   0.000   0.000   0.000   0.000   0.000  -0.000   0.000  -0.000   0.000   0.000   0.000  -0.002   0.000   0.000   0.001
  0.000   0.000   0.000   0.044   0.000   0.000   0.000   0.000   0.000  -0.000  -0.000  -0.000   0.000  -0.002   0.000   0.000
  0.000   0.000  -0.025   0.000   0.043   0.000   0.000  -0.001  -0.000   0.002   0.023  -0.001   0.000   0.000  -0.008   0.000


------------------------ aborting loop because EDIFF is reached ----------------------------------------


    FORLOC:  cpu time      0.0008: real time      0.0008
    FORNL :  cpu time      0.1200: real time      0.1201
    STRESS:  cpu time      0.3614: real time      0.3618
    FORCOR:  cpu time     12.4315: real time     12.4325
    OFIELD:  cpu time      0.0002: real time      0.0002

  FORCE on cell =-STRESS in cart. coord.  units (eV):
  Direction    XX          YY          ZZ          XY          YZ          ZX
  --------------------------------------------------------------------------------------
  Alpha Z     0.29604     0.29604     0.29604
  Ewald     639.50093  -147.33843  -168.35509    -0.00000    -0.00000     0.00000
  Hartree  1352.98170   769.58254   748.68923    -0.00000    -0.00000    -0.00000
  E(xc)    -128.16122  -128.54646  -128.54660     0.00000    -0.00000     0.00000
  Local   -2167.91401  -811.92286  -770.01305     0.00000    -0.00000    -0.00000
  n-local   -57.14276   -53.57470   -53.57427     0.00000     0.00000    -0.00000
  augment   181.26705   186.98970   186.99034    -0.00000    -0.00000    -0.00000
  Kinetic   178.77518   184.50356   184.50369    -0.00000    -0.00000    -0.00000
  Fock        0.00000     0.00000     0.00000     0.00000     0.00000     0.00000
  -------------------------------------------------------------------------------------
  Total      -0.39710    -0.01063    -0.00971     0.00000     0.00000     0.00000
  in kB      -0.06438    -0.00172    -0.00157     0.00000     0.00000     0.00000
  external pressure =       -0.02 kB  Pullay stress =        0.00 kB


 VOLUME and BASIS-vectors are now :
 -----------------------------------------------------------------------------
  energy-cutoff  :      520.00
  volume of cell :     9881.61
      direct lattice vectors                 reciprocal lattice vectors
    21.138852197  0.000000000  0.000000000     0.047306258  0.000000000  0.000000000
     0.000000000 21.138852197  0.000000000     0.000000000  0.047306258  0.000000000
     0.000000000  0.000000000 22.113885220     0.000000000  0.000000000  0.045220457

  length of vectors
    21.138852197 21.138852197 22.113885220     0.047306258  0.047306258  0.045220457


 FORCES acting on ions:
    Electron-Ion                     Ewald-Force                    Non-Local-Force
 -----------------------------------------------------------------------------------------------
   -.362E+03 -.142E-05 0.168E-04   0.349E+03 0.697E-17 -.478E-16   0.131E+02 0.000E+00 0.113E-18
   0.362E+03 -.142E-05 0.256E-04   -.349E+03 0.111E-16 -.517E-16   -.131E+02 0.000E+00 0.120E-18
 -----------------------------------------------------------------------------------------------
   0.512E-12 -.293E-05 0.558E-04   0.000E+00 0.180E-16 -.995E-16   -.178E-14 0.000E+00 0.232E-18


 POSITION                                       TOTAL-FORCE (eV/Angst)
 -----------------------------------------------------------------------------------
     11.68311     10.56943     13.94080        -0.179292      0.000000     -0.000000
      9.45574     10.56943     13.94080         0.179292      0.000000      0.000000
 -----------------------------------------------------------------------------------
    total drift:                                0.000000     -0.000003      0.000056


--------------------------------------------------------------------------------------------------------



  FREE ENERGIE OF THE ION-ELECTRON SYSTEM (eV)
  ---------------------------------------------------
  free  energy   TOTEN  =         3.38064616 eV

  energy  without entropy=        3.38064616  energy(sigma->0) =        3.38064616



--------------------------------------------------------------------------------------------------------


    POTLOK:  cpu time     12.8133: real time     12.8146


--------------------------------------------------------------------------------------------------------


     LOOP+:  cpu time    449.7499: real time    449.9400
    4ORBIT:  cpu time      0.0000: real time      0.0000

 total amount of memory used by VASP MPI-rank0   117460. kBytes
=======================================================================

   base      :      30000. kBytes
   nonlr-proj:        770. kBytes
   fftplans  :      35177. kBytes
   grid      :      48291. kBytes
   one-center:         15. kBytes
   wavefun   :       3207. kBytes

  
  
 General timing and accounting informations for this job:
 ========================================================
  
                  Total CPU time used (sec):      536.595
                            User time (sec):      532.988
                          System time (sec):        3.608
                         Elapsed time (sec):      545.025
  
                   Maximum memory used (kb):      417640.
                   Average memory used (kb):          N/A
  
                          Minor page faults:        84695
                          Major page faults:            0
                 Voluntary context switches:        24514
