 vasp.6.3.0 20Jan22 (build Apr  1 2022 16:44:48) complex                         
 executed on        HPECrayEX_GCC date 2022.08.15  12:03:48
 running  512 mpi-ranks, with    1 threads/rank
 distrk:  each k-point on  256 cores,    2 groups
 distr:  one band on NCORE=   4 cores,   64 groups


--------------------------------------------------------------------------------------------------------


 INCAR:
   SYSTEM = MgO-rocksalt
   ISMEAR = 0
   SIGMA = 0.05
   EDIFF = 1E-6
   ALGO = ALL
   ISTART = 0
   IBRION = -1
   NSW = 0
   ISYM = 2
   GGA = RE
   IVDW = 21
   VDW_SR = 0.6
   ENCUT = 520
   PREC = Accurate
   LASPH = .TRUE.
   LREAL = Auto
   ISPIN = 1
   NELM = 200
   NELMIN = 8
   NCORE = 4
   KPAR = 2
   LWAVE = .FALSE.
   LCHARG = .FALSE.

 POTCAR:    PAW_PBE Au 04Oct2007                  
 POTCAR:    PAW_PBE Au 04Oct2007                  
   SHA256 =  d0044ae04e2bdce24051b198fc5c053d722a5bc6fe3c3b100514a13fc5d2db88 Au/POTCAR             
   COPYR  = (c) Copyright 04Oct2007 Georg Kresse                                                    
   COPYR  = This file is part of the software VASP. Any use, copying, and all other rights are regul
   COPYR  = If you do not have a valid VASP license, you may not use, copy or distribute this file. 
   VRHFIN =Au: s1d10                                                                                
   LEXCH  = PE                                                                                      
   EATOM  =   926.0867 eV,   68.0654 Ry                                                             
                                                                                                    
   TITEL  = PAW_PBE Au 04Oct2007                                                                    
   LULTRA =        F    use ultrasoft PP ?                                                          
   IUNSCR =        1    unscreen: 0-lin 1-nonlin 2-no                                               
   RPACOR =    2.330    partial core radius                                                         
   POMASS =  196.966; ZVAL   =   11.000    mass and valenz                                          
   RCORE  =    2.500    outmost cutoff radius                                                       
   RWIGS  =    2.840; RWIGS  =    1.503    wigner-seitz radius (au A)                               
   ENMAX  =  229.943; ENMIN  =  172.457 eV                                                          
   ICORE  =        3    local potential                                                             
   LCOR   =        T    correct aug charges                                                         
   LPAW   =        T    paw PP                                                                      
   EAUG   =  356.670                                                                                
   DEXC   =    0.000                                                                                
   RMAX   =    2.562    core radius for proj-oper                                                   
   RAUG   =    1.300    factor for augmentation sphere                                              
   RDEP   =    2.598    radius for radial grids                                                     
   RDEPT  =    2.193    core radius for aug-charge                                                  
                                                                                                    
   Atomic configuration                                                                             
   16 entries                                                                                       
     n  l   j            E        occ.                                                              
     1  0  0.50    -80748.5001   2.0000                                                             
     2  0  0.50    -14244.7466   2.0000                                                             
     2  1  1.50    -12310.9591   6.0000                                                             
     3  0  0.50     -3362.1768   2.0000                                                             
     3  1  1.50     -2801.5463   6.0000                                                             
     3  2  2.50     -2203.8206  10.0000                                                             
     4  0  0.50      -729.8168   2.0000                                                             
     4  1  1.50      -546.0527   6.0000                                                             
     4  2  2.50      -325.7302  10.0000                                                             
     4  3  3.50       -81.1472  14.0000                                                             
     5  0  0.50      -108.3201   2.0000                                                             
     5  1  1.50       -59.7479   6.0000                                                             
     5  2  2.50        -6.8783  10.0000                                                             
     6  0  0.50        -5.7602   1.0000                                                             
     6  1  1.50        -6.8029   0.0000                                                             
     5  3  2.50        -1.3606   0.0000                                                             
   Description                                                                                      
     l       E           TYP  RCUT    TYP  RCUT                                                     
     2     -6.8782861     23  2.500                                                                 
     2     -8.2388687     23  2.500                                                                 
     0     -5.7601759     23  2.500                                                                 
     0     -0.8493231     23  2.500                                                                 
     1     -2.7211652     23  2.500                                                                 
     1     27.2116520     23  2.500                                                                 
     3     -1.3605826     23  2.500                                                                 
  local pseudopotential read in
  partial core-charges read in
  partial kinetic energy density read in
  atomic valenz-charges read in
  non local Contribution for L=           2  read in
    real space projection operators read in
  non local Contribution for L=           2  read in
    real space projection operators read in
  non local Contribution for L=           0  read in
    real space projection operators read in
  non local Contribution for L=           0  read in
    real space projection operators read in
  non local Contribution for L=           1  read in
    real space projection operators read in
  non local Contribution for L=           1  read in
    real space projection operators read in
    PAW grid and wavefunctions read in

   number of l-projection  operators is LMAX  =           6
   number of lm-projection operators is LMMAX =          18

 -----------------------------------------------------------------------------
|                                                                             |
|               ----> ADVICE to this user running VASP <----                  |
|                                                                             |
|     You have a (more or less) 'small supercell' and for smaller cells       |
|     it is recommended to use the reciprocal-space projection scheme!        |
|     The real-space optimization is not efficient for small cells and it     |
|     is also less accurate ...                                               |
|     Therefore, set LREAL=.FALSE. in the INCAR file.                         |
|                                                                             |
 -----------------------------------------------------------------------------

 Optimization of the real space projectors (new method)

 maximal supplied QI-value         = 15.12
 optimisation between [QCUT,QGAM] = [ 11.64, 23.28] = [ 37.95,151.78] Ry 
 Optimized for a Real-space Cutoff    1.49 Angstroem

   l    n(q)    QCUT    max X(q) W(low)/X(q) W(high)/X(q)  e(spline) 
   2      9    11.641    60.898    0.24E-03    0.10E-03    0.19E-06
   2      9    11.641    58.894    0.25E-03    0.10E-03    0.19E-06
   0     10    11.641   109.617    0.73E-04    0.33E-04    0.11E-06
   0     10    11.641    75.026    0.71E-04    0.32E-04    0.11E-06
   1     10    11.641    16.344    0.27E-04    0.97E-04    0.16E-06
   1     10    11.641    10.160    0.23E-04    0.77E-04    0.13E-06
 -----------------------------------------------------------------------------
|                                                                             |
|               ----> ADVICE to this user running VASP <----                  |
|                                                                             |
|     You enforced a specific xc type in the INCAR file but a different       |
|     type was found in the POTCAR file.                                      |
|     I HOPE YOU KNOW WHAT YOU ARE DOING!                                     |
|                                                                             |
 -----------------------------------------------------------------------------

  PAW_PBE Au 04Oct2007                  :
 energy of atom  1       EATOM= -926.0867
 kinetic energy error for atom=    0.0034 (will be added to EATOM!!)


 POSCAR: au4
  positions in direct lattice
  velocities in cartesian coordinates
 exchange correlation table for  LEXCH =       40
   RHO(1)=    0.500       N(1)  =     2000
   RHO(2)=  100.500       N(2)  =     4000



--------------------------------------------------------------------------------------------------------


 ion  position               nearest neighbor table
   1  0.029  0.020  0.055-   2 2.61   4 2.66   3 2.67
   2  0.970  0.980  0.945-   1 2.61   3 2.66   4 2.67
   3  0.933  0.928  0.062-   2 2.66   1 2.67
   4  0.067  0.072  0.938-   1 2.66   2 2.67

  LATTYP: Found a simple cubic cell.
 ALAT       =    20.0000000000
  
  Lattice vectors:
  
 A1 = (  20.0000000000,   0.0000000000,   0.0000000000)
 A2 = (   0.0000000000,  20.0000000000,   0.0000000000)
 A3 = (   0.0000000000,   0.0000000000,  20.0000000000)


Analysis of symmetry for initial positions (statically):
=====================================================================
 Subroutine PRICEL returns:
 Original cell was already a primitive cell.
 

 Routine SETGRP: Setting up the symmetry group for a 
 simple cubic supercell.


 Subroutine GETGRP returns: Found  1 space group operations
 (whereof  1 operations were pure point group operations)
 out of a pool of 48 trial point group operations.


The static configuration has the point symmetry C_1 .


Analysis of symmetry for dynamics (positions and initial velocities):
=====================================================================
 Subroutine PRICEL returns:
 Original cell was already a primitive cell.
 

 Routine SETGRP: Setting up the symmetry group for a 
 simple cubic supercell.


 Subroutine GETGRP returns: Found  1 space group operations
 (whereof  1 operations were pure point group operations)
 out of a pool of 48 trial point group operations.


The dynamic configuration has the point symmetry C_1 .


 Subroutine INISYM returns: Found  1 space group operations
 (whereof  1 operations are pure point group operations),
 and found     1 'primitive' translations


----------------------------------------------------------------------------------------

                                     Primitive cell                                     

  volume of cell :    8000.0000

  direct lattice vectors                    reciprocal lattice vectors
    20.000000000  0.000000000  0.000000000     0.050000000  0.000000000  0.000000000
     0.000000000 20.000000000  0.000000000     0.000000000  0.050000000  0.000000000
     0.000000000  0.000000000 20.000000000     0.000000000  0.000000000  0.050000000

  length of vectors
    20.000000000 20.000000000 20.000000000     0.050000000  0.050000000  0.050000000

  position of ions in fractional coordinates (direct lattice)
     0.029491123  0.019721331  0.054801070
     0.970412484  0.980381026  0.945210345
     0.932982382  0.928116396  0.061913163
     0.067114011  0.071781247  0.938075422

  ion indices of the primitive-cell ions
   primitive index   ion index
                 1           1
                 2           2
                 3           3
                 4           4

----------------------------------------------------------------------------------------



 KPOINTS: KPOINTS created by Atomic Simulation Env

Automatic generation of k-mesh.
 Grid dimensions read from file:
 generate k-points for:    1    1    1

 Generating k-lattice:

  Cartesian coordinates                     Fractional coordinates (reciprocal lattice)
     0.050000000  0.000000000  0.000000000     1.000000000  0.000000000  0.000000000
     0.000000000  0.050000000  0.000000000     0.000000000  1.000000000  0.000000000
     0.000000000  0.000000000  0.050000000     0.000000000  0.000000000  1.000000000

  Length of vectors
     0.050000000  0.050000000  0.050000000

  Shift w.r.t. Gamma in fractional coordinates (k-lattice)
     0.000000000  0.000000000  0.000000000

 
 Subroutine IBZKPT returns following result:
 ===========================================
 
 Found      1 irreducible k-points:
 
 Following reciprocal coordinates:
            Coordinates               Weight
  0.000000  0.000000  0.000000      1.000000
 
 Following cartesian coordinates:
            Coordinates               Weight
  0.000000  0.000000  0.000000      1.000000
 


--------------------------------------------------------------------------------------------------------




 Dimension of arrays:
   k-points           NKPTS =      1   k-points in BZ     NKDIM =      1   number of bands    NBANDS=     64
   number of dos      NEDOS =    301   number of ions     NIONS =      4
   non local maximal  LDIM  =      6   non local SUM 2l+1 LMDIM =     18
   total plane-waves  NPLWV = ******
   max r-space proj   IRMAX =   5885   max aug-charges    IRDMAX=  25995
   dimension x,y,z NGX =   150 NGY =  150 NGZ =  150
   dimension x,y,z NGXF=   300 NGYF=  300 NGZF=  300
   support grid    NGXF=   300 NGYF=  300 NGZF=  300
   ions per type =               4
   NGX,Y,Z   is equivalent  to a cutoff of  12.47, 12.47, 12.47 a.u.
   NGXF,Y,Z  is equivalent  to a cutoff of  24.94, 24.94, 24.94 a.u.

 SYSTEM =  MgO-rocksalt                            
 POSCAR =  au4                                     

 Startparameter for this run:
   NWRITE =      2    write-flag & timer
   PREC   = accura    normal or accurate (medium, high low for compatibility)
   ISTART =      0    job   : 0-new  1-cont  2-samecut
   ICHARG =      2    charge: 1-file 2-atom 10-const
   ISPIN  =      1    spin polarized calculation?
   LNONCOLLINEAR =      F non collinear calculations
   LSORBIT =      F    spin-orbit coupling
   INIWAV =      1    electr: 0-lowe 1-rand  2-diag
   LASPH  =      T    aspherical Exc in radial PAW
 Electronic Relaxation 1
   ENCUT  =  520.0 eV  38.22 Ry    6.18 a.u.  37.19 37.19 37.19*2*pi/ulx,y,z
   ENINI  =  520.0     initial cutoff
   ENAUG  =  356.7 eV  augmentation charge cutoff
   NELM   =    200;   NELMIN=  8; NELMDL= -5     # of ELM steps 
   EDIFF  = 0.1E-05   stopping-criterion for ELM
   LREAL  =      T    real-space projection
   NLSPLINE    = F    spline interpolate recip. space projectors
   LCOMPAT=      F    compatible to vasp.4.4
   GGA_COMPAT  = T    GGA compatible to vasp.4.4-vasp.4.6
   LMAXPAW     = -100 max onsite density
   LMAXMIX     =    2 max onsite mixed and CHGCAR
   VOSKOWN=      0    Vosko Wilk Nusair interpolation
   ROPT   =   -0.00025
 Ionic relaxation
   EDIFFG = 0.1E-04   stopping-criterion for IOM
   NSW    =      0    number of steps for IOM
   NBLOCK =      1;   KBLOCK =      1    inner block; outer block 
   IBRION =     -1    ionic relax: 0-MD 1-quasi-New 2-CG
   NFREE  =      0    steps in history (QN), initial steepest desc. (CG)
   ISIF   =      2    stress and relaxation
   IWAVPR =     10    prediction:  0-non 1-charg 2-wave 3-comb
   ISYM   =      2    0-nonsym 1-usesym 2-fastsym
   LCORR  =      T    Harris-Foulkes like correction to forces

   POTIM  = 0.5000    time-step for ionic-motion
   TEIN   =    0.0    initial temperature
   TEBEG  =    0.0;   TEEND  =   0.0 temperature during run
   SMASS  =  -3.00    Nose mass-parameter (am)
   estimated Nose-frequenzy (Omega)   =  0.10E-29 period in steps = 0.13E+47 mass=  -0.914E-26a.u.
   SCALEE = 1.0000    scale energy and forces
   NPACO  =    256;   APACO  = 10.0  distance and # of slots for P.C.
   PSTRESS=    0.0 pullay stress

  Mass of Ions in am
   POMASS = 196.97
  Ionic Valenz
   ZVAL   =  11.00
  Atomic Wigner-Seitz radii
   RWIGS  =  -1.00
  virtual crystal weights 
   VCA    =   1.00
   NELECT =      44.0000    total number of electrons
   NUPDOWN=      -1.0000    fix difference up-down

 DOS related values:
   EMIN   =  10.00;   EMAX   =-10.00  energy-range for DOS
   EFERMI =   0.00
   ISMEAR =     0;   SIGMA  =   0.05  broadening in eV -4-tet -1-fermi 0-gaus

 Electronic relaxation 2 (details)
   IALGO  =     58    algorithm
   LDIAG  =      T    sub-space diagonalisation (order eigenvalues)
   LSUBROT=      F    optimize rotation matrix (better conditioning)
   TURBO    =      0    0=normal 1=particle mesh
   IRESTART =      0    0=no restart 2=restart with 2 vectors
   NREBOOT  =      0    no. of reboots
   NMIN     =      0    reboot dimension
   EREF     =   0.00    reference energy to select bands
   IMIX   =      4    mixing-type and parameters
     AMIX     =   0.40;   BMIX     =  1.00
     AMIX_MAG =   1.60;   BMIX_MAG =  1.00
     AMIN     =   0.10
     WC   =   100.;   INIMIX=   1;  MIXPRE=   1;  MAXMIX= -45

 Intra band minimization:
   WEIMIN = 0.0000     energy-eigenvalue tresh-hold
   EBREAK =  0.39E-08  absolut break condition
   DEPER  =   0.30     relativ break condition  

   TIME   =   0.40     timestep for ELM

  volume/ion in A,a.u.               =    2000.00     13496.67
  Fermi-wavevector in a.u.,A,eV,Ry     =   0.288976  0.546086  1.136187  0.083507
  Thomas-Fermi vector in A             =   1.146265

 Write flags
   LWAVE        =      F    write WAVECAR
   LDOWNSAMPLE  =      F    k-point downsampling of WAVECAR
   LCHARG       =      F    write CHGCAR
   LVTOT        =      F    write LOCPOT, total local potential
   LVHAR        =      F    write LOCPOT, Hartree potential only
   LELF         =      F    write electronic localiz. function (ELF)
   LORBIT       =      0    0 simple, 1 ext, 2 COOP (PROOUT), +10 PAW based schemes


 Dipole corrections
   LMONO  =      F    monopole corrections only (constant potential shift)
   LDIPOL =      F    correct potential (dipole corrections)
   IDIPOL =      0    1-x, 2-y, 3-z, 4-all directions 
   EPSILON=  1.0000000 bulk dielectric constant

 Exchange correlation treatment:
   GGA     =    RE    GGA type
   LEXCH   =    40    internal setting for exchange type
   LIBXC   =     F    Libxc                    
   VOSKOWN =     0    Vosko Wilk Nusair interpolation
   LHFCALC =     F    Hartree Fock is set to
   LHFONE  =     F    Hartree Fock one center treatment
   AEXX    =    0.0000 exact exchange contribution

 Linear response parameters
   LEPSILON=     F    determine dielectric tensor
   LRPA    =     F    only Hartree local field effects (RPA)
   LNABLA  =     F    use nabla operator in PAW spheres
   LVEL    =     F    velocity operator in full k-point grid
   CSHIFT  =0.1000    complex shift for real part using Kramers Kronig
   OMEGAMAX=  -1.0    maximum frequency
   DEG_THRESHOLD= 0.2000000E-02 threshold for treating states as degnerate
   RTIME   =   -0.100 relaxation time in fs
  (WPLASMAI=    0.000 imaginary part of plasma frequency in eV, 0.658/RTIME)
   DFIELD  = 0.0000000 0.0000000 0.0000000 field for delta impulse in time

  Optional k-point grid parameters
   LKPOINTS_OPT  =     F    use optional k-point grid
   KPOINTS_OPT_MODE=     1    mode for optional k-point grid

 Orbital magnetization related:
   ORBITALMAG=     F  switch on orbital magnetization
   LCHIMAG   =     F  perturbation theory with respect to B field
   DQ        =  0.001000  dq finite difference perturbation B field
   LLRAUG    =     F  two centre corrections for induced B field



--------------------------------------------------------------------------------------------------------


 Static calculation
 charge density and potential will be updated during run
 non-spin polarized calculation
 Conjugate gradient for all bands (Freysoldt, et al. PRB 79, 241103 (2009))
 preconditioned conjugated gradient                                        
 perform sub-space diagonalisation
    before iterative eigenvector-optimisation
 modified Broyden-mixing scheme, WC =      100.0
 initial mixing is a Kerker type mixing with AMIX =  0.4000 and BMIX =      1.0000
 Hartree-type preconditioning will be used
 using additional bands           42
 real space projection scheme for non local part
 use partial core corrections
 no Harris-corrections to forces 
 use gradient corrections 
 use of overlap-Matrix (Vanderbilt PP)
 Gauss-broadening in eV      SIGMA  =   0.05


--------------------------------------------------------------------------------------------------------


  energy-cutoff  :      520.00
  volume of cell :     8000.00
      direct lattice vectors                 reciprocal lattice vectors
    20.000000000  0.000000000  0.000000000     0.050000000  0.000000000  0.000000000
     0.000000000 20.000000000  0.000000000     0.000000000  0.050000000  0.000000000
     0.000000000  0.000000000 20.000000000     0.000000000  0.000000000  0.050000000

  length of vectors
    20.000000000 20.000000000 20.000000000     0.050000000  0.050000000  0.050000000



 k-points in units of 2pi/SCALE and weight: KPOINTS created by Atomic Simulation Env
   0.00000000  0.00000000  0.00000000       1.000

 k-points in reciprocal lattice and weights: KPOINTS created by Atomic Simulation Env
   0.00000000  0.00000000  0.00000000       1.000

 position of ions in fractional coordinates (direct lattice) 
   0.02949112  0.01972133  0.05480107
   0.97041248  0.98038103  0.94521035
   0.93298238  0.92811640  0.06191316
   0.06711401  0.07178125  0.93807542

 position of ions in cartesian coordinates  (Angst):
   0.58982245  0.39442661  1.09602139
  19.40824969 19.60762053 18.90420690
  18.65964764 18.56232793  1.23826326
   1.34228022  1.43562494 18.76150844



--------------------------------------------------------------------------------------------------------


 k-point   1 :   0.0000 0.0000 0.0000  plane waves:  215503

 maximum and minimum number of plane-waves per node :     53900    53857

 maximum number of plane-waves:    215503
 maximum index in each direction: 
   IXMAX=   37   IYMAX=   37   IZMAX=   37
   IXMIN=  -37   IYMIN=  -37   IZMIN=  -37


 real space projection operators:
  total allocation   :       3181.78 KBytes
  max/ min on nodes  :        853.45        740.25


 parallel 3D FFT for wavefunctions:
    minimum data exchange during FFTs selected (reduces bandwidth)
 parallel 3D FFT for charge:
    minimum data exchange during FFTs selected (reduces bandwidth)


 total amount of memory used by VASP MPI-rank0   107811. kBytes
=======================================================================

   base      :      30000. kBytes
   nonlr-proj:       1446. kBytes
   fftplans  :      30789. kBytes
   grid      :      42969. kBytes
   one-center:         15. kBytes
   wavefun   :       2592. kBytes

     INWAV:  cpu time      0.0001: real time      0.0001
 Broyden mixing: mesh for mixing (old mesh)
   NGX = 75   NGY = 75   NGZ = 75
  (NGX  =300   NGY  =300   NGZ  =300)
  gives a total of 421875 points

 initial charge density was supplied:
 charge density of overlapping atoms calculated
 number of electron      44.0000000 magnetization 
 keeping initial charge density in first step


--------------------------------------------------------------------------------------------------------


 Maximum index for non-local projection operator         1603
 Maximum index for augmentation-charges          787 (set IRDMAX)


--------------------------------------------------------------------------------------------------------


 First call to EWALD:  gamma=   0.089
 Maximum number of real-space cells 3x 3x 3
 Maximum number of reciprocal cells 3x 3x 3

    FEWALD:  cpu time      0.0007: real time      0.0007


--------------------------------------- Iteration      1(   1)  ---------------------------------------


    POTLOK:  cpu time      0.1611: real time      0.1613
    SETDIJ:  cpu time      0.1079: real time      0.1081
    TRIAL :  cpu time      0.3554: real time      0.3560
    CORREC:  cpu time      0.0011: real time      0.0011
    --------------------------------------------
      LOOP:  cpu time      0.6274: real time      0.6285

 eigenvalue-minimisations  :   128
 total energy-change (2. order) : 0.2986431E+03  (-0.8431206E+03)
 number of electron      44.0000000 magnetization 
 augmentation part       44.0000000 magnetization 

 Free energy of the ion-electron system (eV)
  ---------------------------------------------------
  alpha Z        PSCENC =         2.32959210
  Ewald energy   TEWEN  =      1705.48734111
  -Hartree energ DENC   =     -5251.43012379
  -exchange      EXHF   =         0.00000000
  -V(xc)+E(xc)   XCENC  =        55.74246584
  PAW double counting   =      3498.32658459    -3402.09690484
  entropy T*S    EENTRO =        -0.01660079
  eigenvalues    EBANDS =       -10.96112137
  atomic energy  EATOM  =      3701.26187442
  ---------------------------------------------------
  free energy    TOTEN  =       298.64310727 eV

  energy without entropy =      298.65970806  energy(sigma->0) =      298.65140767


--------------------------------------------------------------------------------------------------------




--------------------------------------- Iteration      1(   2)  ---------------------------------------


    TRIAL :  cpu time      0.7948: real time      0.7949
    CORREC:  cpu time      0.0006: real time      0.0006
    --------------------------------------------
      LOOP:  cpu time      0.8001: real time      0.8077

 eigenvalue-minimisations  :   256
 total energy-change (2. order) :-0.2677637E+03  (-0.2677604E+03)
 number of electron      44.0000000 magnetization 
 augmentation part       44.0000000 magnetization 

 Free energy of the ion-electron system (eV)
  ---------------------------------------------------
  alpha Z        PSCENC =         2.32959210
  Ewald energy   TEWEN  =      1705.48734111
  -Hartree energ DENC   =     -5251.43012379
  -exchange      EXHF   =         0.00000000
  -V(xc)+E(xc)   XCENC  =        55.74246584
  PAW double counting   =      3498.32658459    -3402.09690484
  entropy T*S    EENTRO =        -0.00471365
  eigenvalues    EBANDS =      -278.73670606
  atomic energy  EATOM  =      3701.26187442
  ---------------------------------------------------
  free energy    TOTEN  =        30.87940973 eV

  energy without entropy =       30.88412338  energy(sigma->0) =       30.88176655


--------------------------------------------------------------------------------------------------------




--------------------------------------- Iteration      1(   3)  ---------------------------------------


    TRIAL :  cpu time      0.3413: real time      0.3414
    CORREC:  cpu time      0.0002: real time      0.0002
    --------------------------------------------
      LOOP:  cpu time      0.3459: real time      0.3540

 eigenvalue-minimisations  :   128
 total energy-change (2. order) :-0.3718317E+02  (-0.3715834E+02)
 number of electron      44.0000000 magnetization 
 augmentation part       44.0000000 magnetization 

 Free energy of the ion-electron system (eV)
  ---------------------------------------------------
  alpha Z        PSCENC =         2.32959210
  Ewald energy   TEWEN  =      1705.48734111
  -Hartree energ DENC   =     -5251.43012379
  -exchange      EXHF   =         0.00000000
  -V(xc)+E(xc)   XCENC  =        55.74246584
  PAW double counting   =      3498.32658459    -3402.09690484
  entropy T*S    EENTRO =        -0.00000000
  eigenvalues    EBANDS =      -315.92458632
  atomic energy  EATOM  =      3701.26187442
  ---------------------------------------------------
  free energy    TOTEN  =        -6.30375689 eV

  energy without entropy =       -6.30375689  energy(sigma->0) =       -6.30375689


--------------------------------------------------------------------------------------------------------




--------------------------------------- Iteration      1(   4)  ---------------------------------------


    TRIAL :  cpu time      0.3453: real time      0.3453
    CORREC:  cpu time      0.0002: real time      0.0002
    --------------------------------------------
      LOOP:  cpu time      0.3595: real time      0.3597

 eigenvalue-minimisations  :   128
 total energy-change (2. order) :-0.3811390E+00  (-0.3811390E+00)
 number of electron      44.0000000 magnetization 
 augmentation part       44.0000000 magnetization 

 Free energy of the ion-electron system (eV)
  ---------------------------------------------------
  alpha Z        PSCENC =         2.32959210
  Ewald energy   TEWEN  =      1705.48734111
  -Hartree energ DENC   =     -5251.43012379
  -exchange      EXHF   =         0.00000000
  -V(xc)+E(xc)   XCENC  =        55.74246584
  PAW double counting   =      3498.32658459    -3402.09690484
  entropy T*S    EENTRO =        -0.00000000
  eigenvalues    EBANDS =      -316.30572531
  atomic energy  EATOM  =      3701.26187442
  ---------------------------------------------------
  free energy    TOTEN  =        -6.68489588 eV

  energy without entropy =       -6.68489588  energy(sigma->0) =       -6.68489588


--------------------------------------------------------------------------------------------------------




--------------------------------------- Iteration      1(   5)  ---------------------------------------


    TRIAL :  cpu time      0.7855: real time      0.7856
    CORREC:  cpu time      0.0002: real time      0.0002
    CHARGE:  cpu time      0.1108: real time      0.1111
    --------------------------------------------
      LOOP:  cpu time      0.9014: real time      0.9100

 eigenvalue-minimisations  :   256
 total energy-change (2. order) :-0.5307413E-02  (-0.5307413E-02)
 number of electron      44.0000001 magnetization 
 augmentation part       15.9923432 magnetization 

 Free energy of the ion-electron system (eV)
  ---------------------------------------------------
  alpha Z        PSCENC =         2.32959210
  Ewald energy   TEWEN  =      1705.48734111
  -Hartree energ DENC   =     -5251.43012379
  -exchange      EXHF   =         0.00000000
  -V(xc)+E(xc)   XCENC  =        55.74246584
  PAW double counting   =      3498.32658459    -3402.09690484
  entropy T*S    EENTRO =        -0.00000000
  eigenvalues    EBANDS =      -316.31103272
  atomic energy  EATOM  =      3701.26187442
  ---------------------------------------------------
  free energy    TOTEN  =        -6.69020329 eV

  energy without entropy =       -6.69020329  energy(sigma->0) =       -6.69020329


--------------------------------------------------------------------------------------------------------




--------------------------------------- Iteration      1(   6)  ---------------------------------------


    POTLOK:  cpu time      0.1328: real time      0.1328
    SETDIJ:  cpu time      0.1068: real time      0.1068
    TRIAL :  cpu time      0.4715: real time      0.5797
    CORREC:  cpu time      0.4121: real time      0.4124
    CHARGE:  cpu time      0.1063: real time      0.1063
    --------------------------------------------
      LOOP:  cpu time      1.2339: real time      1.3508

 eigenvalue-minimisations  :     0
 total energy-change (2. order) : 0.1265088E+01  (-0.6312772E+00)
 number of electron      44.0000001 magnetization 
 augmentation part       16.2226598 magnetization 

 Free energy of the ion-electron system (eV)
  ---------------------------------------------------
  alpha Z        PSCENC =         2.32959210
  Ewald energy   TEWEN  =      1705.48734111
  -Hartree energ DENC   =     -5235.14900546
  -exchange      EXHF   =         0.00000000
  -V(xc)+E(xc)   XCENC  =        54.41134232
  PAW double counting   =      3869.70564177    -3779.91882223
  entropy T*S    EENTRO =        -0.00000000
  eigenvalues    EBANDS =      -323.55307941
  atomic energy  EATOM  =      3701.26187442
  ---------------------------------------------------
  free energy    TOTEN  =        -5.42511538 eV

  energy without entropy =       -5.42511538  energy(sigma->0) =       -5.42511538


--------------------------------------------------------------------------------------------------------




--------------------------------------- Iteration      1(   7)  ---------------------------------------


    POTLOK:  cpu time      0.1354: real time      0.1354
    SETDIJ:  cpu time      0.1081: real time      0.1081
    TRIAL :  cpu time      0.1853: real time      0.1853
    CORREC:  cpu time      0.4105: real time      0.4106
    CHARGE:  cpu time      0.1064: real time      0.1064
    --------------------------------------------
      LOOP:  cpu time      0.9596: real time      0.9601

 eigenvalue-minimisations  :     0
 total energy-change (2. order) :-0.6309531E+00  (-0.6076223E-01)
 number of electron      44.0000001 magnetization 
 augmentation part       16.2382092 magnetization 

 Free energy of the ion-electron system (eV)
  ---------------------------------------------------
  alpha Z        PSCENC =         2.32959210
  Ewald energy   TEWEN  =      1705.48734111
  -Hartree energ DENC   =     -5244.85847861
  -exchange      EXHF   =         0.00000000
  -V(xc)+E(xc)   XCENC  =        55.09970477
  PAW double counting   =      3878.68805624    -3788.36443666
  entropy T*S    EENTRO =        -0.00000000
  eigenvalues    EBANDS =      -315.69972181
  atomic energy  EATOM  =      3701.26187442
  ---------------------------------------------------
  free energy    TOTEN  =        -6.05606843 eV

  energy without entropy =       -6.05606843  energy(sigma->0) =       -6.05606843


--------------------------------------------------------------------------------------------------------




--------------------------------------- Iteration      1(   8)  ---------------------------------------


    POTLOK:  cpu time      0.1363: real time      0.1363
    SETDIJ:  cpu time      0.1064: real time      0.1064
    TRIAL :  cpu time      0.1867: real time      0.1867
    CORREC:  cpu time      0.4099: real time      0.4099
    CHARGE:  cpu time      0.1059: real time      0.1059
    --------------------------------------------
      LOOP:  cpu time      0.9507: real time      0.9590

 eigenvalue-minimisations  :     0
 total energy-change (2. order) :-0.6060639E-01  (-0.2789468E-01)
 number of electron      44.0000001 magnetization 
 augmentation part       16.2351175 magnetization 

 Free energy of the ion-electron system (eV)
  ---------------------------------------------------
  alpha Z        PSCENC =         2.32959210
  Ewald energy   TEWEN  =      1705.48734111
  -Hartree energ DENC   =     -5240.44375821
  -exchange      EXHF   =         0.00000000
  -V(xc)+E(xc)   XCENC  =        55.08098768
  PAW double counting   =      3866.89480950    -3776.52516276
  entropy T*S    EENTRO =        -0.00000000
  eigenvalues    EBANDS =      -320.20235867
  atomic energy  EATOM  =      3701.26187442
  ---------------------------------------------------
  free energy    TOTEN  =        -6.11667483 eV

  energy without entropy =       -6.11667483  energy(sigma->0) =       -6.11667483


--------------------------------------------------------------------------------------------------------




--------------------------------------- Iteration      1(   9)  ---------------------------------------


    POTLOK:  cpu time      0.1347: real time      0.1347
    SETDIJ:  cpu time      0.1081: real time      0.1081
    TRIAL :  cpu time      0.1861: real time      0.1862
    CORREC:  cpu time      0.4093: real time      0.4094
    CHARGE:  cpu time      0.1056: real time      0.1056
    --------------------------------------------
      LOOP:  cpu time      0.9498: real time      0.9576

 eigenvalue-minimisations  :     0
 total energy-change (2. order) :-0.2801872E-01  (-0.7328616E-02)
 number of electron      44.0000001 magnetization 
 augmentation part       16.2481810 magnetization 

 Free energy of the ion-electron system (eV)
  ---------------------------------------------------
  alpha Z        PSCENC =         2.32959210
  Ewald energy   TEWEN  =      1705.48734111
  -Hartree energ DENC   =     -5240.23434791
  -exchange      EXHF   =         0.00000000
  -V(xc)+E(xc)   XCENC  =        55.04204633
  PAW double counting   =      3860.52719583    -3770.14427095
  entropy T*S    EENTRO =        -0.00000000
  eigenvalues    EBANDS =      -320.41412449
  atomic energy  EATOM  =      3701.26187442
  ---------------------------------------------------
  free energy    TOTEN  =        -6.14469355 eV

  energy without entropy =       -6.14469355  energy(sigma->0) =       -6.14469355


--------------------------------------------------------------------------------------------------------




--------------------------------------- Iteration      1(  10)  ---------------------------------------


    POTLOK:  cpu time      0.1342: real time      0.1342
    SETDIJ:  cpu time      0.1071: real time      0.1071
    TRIAL :  cpu time      0.1862: real time      0.1862
    CORREC:  cpu time      0.4067: real time      0.4067
    CHARGE:  cpu time      0.1060: real time      0.1060
    --------------------------------------------
      LOOP:  cpu time      0.9534: real time      0.9537

 eigenvalue-minimisations  :     0
 total energy-change (2. order) :-0.7332075E-02  (-0.1703976E-02)
 number of electron      44.0000001 magnetization 
 augmentation part       16.2409395 magnetization 

 Free energy of the ion-electron system (eV)
  ---------------------------------------------------
  alpha Z        PSCENC =         2.32959210
  Ewald energy   TEWEN  =      1705.48734111
  -Hartree energ DENC   =     -5242.89418575
  -exchange      EXHF   =         0.00000000
  -V(xc)+E(xc)   XCENC  =        55.11450851
  PAW double counting   =      3862.46010443    -3771.96819783
  entropy T*S    EENTRO =        -0.00000000
  eigenvalues    EBANDS =      -317.94306261
  atomic energy  EATOM  =      3701.26187442
  ---------------------------------------------------
  free energy    TOTEN  =        -6.15202563 eV

  energy without entropy =       -6.15202563  energy(sigma->0) =       -6.15202563


--------------------------------------------------------------------------------------------------------




--------------------------------------- Iteration      1(  11)  ---------------------------------------


    POTLOK:  cpu time      0.1322: real time      0.1323
    SETDIJ:  cpu time      0.1074: real time      0.1074
    TRIAL :  cpu time      0.1858: real time      0.1858
    CORREC:  cpu time      0.4051: real time      0.4051
    CHARGE:  cpu time      0.1055: real time      0.1055
    --------------------------------------------
      LOOP:  cpu time      0.9424: real time      0.9502

 eigenvalue-minimisations  :     0
 total energy-change (2. order) :-0.1708102E-02  (-0.5749867E-03)
 number of electron      44.0000001 magnetization 
 augmentation part       16.2457067 magnetization 

 Free energy of the ion-electron system (eV)
  ---------------------------------------------------
  alpha Z        PSCENC =         2.32959210
  Ewald energy   TEWEN  =      1705.48734111
  -Hartree energ DENC   =     -5240.83877973
  -exchange      EXHF   =         0.00000000
  -V(xc)+E(xc)   XCENC  =        55.07193484
  PAW double counting   =      3858.15019472    -3767.62215092
  entropy T*S    EENTRO =        -0.00000000
  eigenvalues    EBANDS =      -319.99374027
  atomic energy  EATOM  =      3701.26187442
  ---------------------------------------------------
  free energy    TOTEN  =        -6.15373373 eV

  energy without entropy =       -6.15373373  energy(sigma->0) =       -6.15373373


--------------------------------------------------------------------------------------------------------




--------------------------------------- Iteration      1(  12)  ---------------------------------------


    POTLOK:  cpu time      0.1323: real time      0.1323
    SETDIJ:  cpu time      0.1071: real time      0.1071
    TRIAL :  cpu time      0.1865: real time      0.1866
    CORREC:  cpu time      0.4052: real time      0.4053
    CHARGE:  cpu time      0.1058: real time      0.1058
    --------------------------------------------
      LOOP:  cpu time      0.9424: real time      0.9504

 eigenvalue-minimisations  :     0
 total energy-change (2. order) :-0.5730447E-03  (-0.1109281E-03)
 number of electron      44.0000001 magnetization 
 augmentation part       16.2470271 magnetization 

 Free energy of the ion-electron system (eV)
  ---------------------------------------------------
  alpha Z        PSCENC =         2.32959210
  Ewald energy   TEWEN  =      1705.48734111
  -Hartree energ DENC   =     -5241.68737778
  -exchange      EXHF   =         0.00000000
  -V(xc)+E(xc)   XCENC  =        55.09317306
  PAW double counting   =      3857.93503860    -3767.38124854
  entropy T*S    EENTRO =        -0.00000000
  eigenvalues    EBANDS =      -319.19269975
  atomic energy  EATOM  =      3701.26187442
  ---------------------------------------------------
  free energy    TOTEN  =        -6.15430677 eV

  energy without entropy =       -6.15430677  energy(sigma->0) =       -6.15430677


--------------------------------------------------------------------------------------------------------




--------------------------------------- Iteration      1(  13)  ---------------------------------------


    POTLOK:  cpu time      0.1325: real time      0.1325
    SETDIJ:  cpu time      0.1059: real time      0.1059
    TRIAL :  cpu time      0.1868: real time      0.1868
    CORREC:  cpu time      0.4063: real time      0.4064
    CHARGE:  cpu time      0.1060: real time      0.1060
    --------------------------------------------
      LOOP:  cpu time      0.9506: real time      0.9512

 eigenvalue-minimisations  :     0
 total energy-change (2. order) :-0.1106488E-03  (-0.2596449E-04)
 number of electron      44.0000001 magnetization 
 augmentation part       16.2464550 magnetization 

 Free energy of the ion-electron system (eV)
  ---------------------------------------------------
  alpha Z        PSCENC =         2.32959210
  Ewald energy   TEWEN  =      1705.48734111
  -Hartree energ DENC   =     -5241.79549148
  -exchange      EXHF   =         0.00000000
  -V(xc)+E(xc)   XCENC  =        55.09688581
  PAW double counting   =      3857.66470367    -3767.10323794
  entropy T*S    EENTRO =        -0.00000000
  eigenvalues    EBANDS =      -319.09608510
  atomic energy  EATOM  =      3701.26187442
  ---------------------------------------------------
  free energy    TOTEN  =        -6.15441742 eV

  energy without entropy =       -6.15441742  energy(sigma->0) =       -6.15441742


--------------------------------------------------------------------------------------------------------




--------------------------------------- Iteration      1(  14)  ---------------------------------------


    POTLOK:  cpu time      0.1308: real time      0.1308
    SETDIJ:  cpu time      0.1076: real time      0.1076
    TRIAL :  cpu time      0.1864: real time      0.1864
    CORREC:  cpu time      0.4062: real time      0.4063
    CHARGE:  cpu time      0.1058: real time      0.1058
    --------------------------------------------
      LOOP:  cpu time      0.9422: real time      0.9504

 eigenvalue-minimisations  :     0
 total energy-change (2. order) :-0.2600416E-04  (-0.7267837E-05)
 number of electron      44.0000001 magnetization 
 augmentation part       16.2467939 magnetization 

 Free energy of the ion-electron system (eV)
  ---------------------------------------------------
  alpha Z        PSCENC =         2.32959210
  Ewald energy   TEWEN  =      1705.48734111
  -Hartree energ DENC   =     -5241.65281028
  -exchange      EXHF   =         0.00000000
  -V(xc)+E(xc)   XCENC  =        55.09252334
  PAW double counting   =      3857.34348041    -3766.78146601
  entropy T*S    EENTRO =        -0.00000000
  eigenvalues    EBANDS =      -319.23497852
  atomic energy  EATOM  =      3701.26187442
  ---------------------------------------------------
  free energy    TOTEN  =        -6.15444342 eV

  energy without entropy =       -6.15444342  energy(sigma->0) =       -6.15444342


--------------------------------------------------------------------------------------------------------




--------------------------------------- Iteration      1(  15)  ---------------------------------------


    POTLOK:  cpu time      0.1303: real time      0.1303
    SETDIJ:  cpu time      0.1079: real time      0.1079
    TRIAL :  cpu time      0.1861: real time      0.1861
    CORREC:  cpu time      0.4056: real time      0.4057
    CHARGE:  cpu time      0.1062: real time      0.1062
    --------------------------------------------
      LOOP:  cpu time      0.9427: real time      0.9503

 eigenvalue-minimisations  :     0
 total energy-change (2. order) :-0.7010141E-05  (-0.9617298E-06)
 number of electron      44.0000001 magnetization 
 augmentation part       16.2467365 magnetization 

 Free energy of the ion-electron system (eV)
  ---------------------------------------------------
  alpha Z        PSCENC =         2.32959210
  Ewald energy   TEWEN  =      1705.48734111
  -Hartree energ DENC   =     -5241.70070767
  -exchange      EXHF   =         0.00000000
  -V(xc)+E(xc)   XCENC  =        55.09384422
  PAW double counting   =      3857.40449806    -3766.84142395
  entropy T*S    EENTRO =        -0.00000000
  eigenvalues    EBANDS =      -319.18946873
  atomic energy  EATOM  =      3701.26187442
  ---------------------------------------------------
  free energy    TOTEN  =        -6.15445044 eV

  energy without entropy =       -6.15445044  energy(sigma->0) =       -6.15445044


--------------------------------------------------------------------------------------------------------




--------------------------------------- Iteration      1(  16)  ---------------------------------------


    POTLOK:  cpu time      0.1323: real time      0.1323
    SETDIJ:  cpu time      0.1086: real time      0.1086
    TRIAL :  cpu time      0.1859: real time      0.1859
    CORREC:  cpu time      0.4095: real time      0.4099
    EDDIAG:  cpu time      0.0797: real time      0.0800
    CHARGE:  cpu time      0.1057: real time      0.1057
    --------------------------------------------
      LOOP:  cpu time      1.0269: real time      1.0366

 eigenvalue-minimisations  :     0
 total energy-change (2. order) :-0.9864953E-06  (-0.2240034E-06)
 number of electron      44.0000001 magnetization 
 augmentation part       16.2466940 magnetization 

 Free energy of the ion-electron system (eV)
  ---------------------------------------------------
  alpha Z        PSCENC =         2.32959210
  Ewald energy   TEWEN  =      1705.48734111
  -Hartree energ DENC   =     -5241.69428493
  -exchange      EXHF   =         0.00000000
  -V(xc)+E(xc)   XCENC  =        55.09365450
  PAW double counting   =      3857.38884446    -3766.82585485
  entropy T*S    EENTRO =        -0.00000000
  eigenvalues    EBANDS =      -319.19561824
  atomic energy  EATOM  =      3701.26187442
  ---------------------------------------------------
  free energy    TOTEN  =        -6.15445142 eV

  energy without entropy =       -6.15445142  energy(sigma->0) =       -6.15445142


--------------------------------------------------------------------------------------------------------


  average scaling for gradient   1.4294


 average (electrostatic) potential at core
  the test charge radii are     1.2098
  (the norm of the test charge is              1.0000)
       1 -77.0368       2 -77.0368       3 -76.6180       4 -76.6181



 E-fermi :  -5.0890     XC(G=0):  -0.3085     alpha+bet : -0.1187

 Fermi energy:        -5.0890354471

 k-point     1 :       0.0000    0.0000    0.0000
  band No.  band energies     occupation 
      1      -9.8464      2.00000
      2      -9.4285      2.00000
      3      -8.7822      2.00000
      4      -8.6587      2.00000
      5      -8.3239      2.00000
      6      -8.0449      2.00000
      7      -7.8579      2.00000
      8      -7.5937      2.00000
      9      -7.2051      2.00000
     10      -6.9053      2.00000
     11      -6.8833      2.00000
     12      -6.8584      2.00000
     13      -6.8082      2.00000
     14      -6.6916      2.00000
     15      -6.6721      2.00000
     16      -6.4148      2.00000
     17      -6.3973      2.00000
     18      -6.3971      2.00000
     19      -6.3299      2.00000
     20      -6.2785      2.00000
     21      -5.8684      2.00000
     22      -5.3519      2.00000
     23      -4.3576      0.00000
     24      -3.2377      0.00000
     25      -1.7700      0.00000
     26      -1.1211      0.00000
     27      -1.1067      0.00000
     28      -0.5157      0.00000
     29      -0.1566      0.00000
     30       0.0965      0.00000
     31       0.2771      0.00000
     32       0.2985      0.00000
     33       0.4293      0.00000
     34       0.4459      0.00000
     35       0.4545      0.00000
     36       0.5004      0.00000
     37       0.5326      0.00000
     38       0.6323      0.00000
     39       0.6528      0.00000
     40       0.7290      0.00000
     41       0.7384      0.00000
     42       0.7419      0.00000
     43       0.7622      0.00000
     44       0.8145      0.00000
     45       0.8161      0.00000
     46       0.8369      0.00000
     47       0.8743      0.00000
     48       0.9360      0.00000
     49       0.9574      0.00000
     50       1.0740      0.00000
     51       1.1151      0.00000
     52       1.1240      0.00000
     53       1.1267      0.00000
     54       1.1555      0.00000
     55       1.1571      0.00000
     56       1.2227      0.00000
     57       1.2718      0.00000
     58       1.2999      0.00000
     59       1.3393      0.00000
     60       1.4375      0.00000
     61       1.5153      0.00000
     62       1.5160      0.00000
     63       1.5926      0.00000
     64       1.5991      0.00000


--------------------------------------------------------------------------------------------------------


 soft charge-density along one line, spin component           1
         0         1         2         3         4         5         6         7         8         9
 total charge-density along one line

 pseudopotential strength for first ion, spin component:           1
 -9.299  -0.009   0.024  -0.002  -0.000  -9.418  -0.009   0.023
 -0.009  -9.327  -0.004  -0.029   0.003  -0.009  -9.445  -0.004
  0.024  -0.004  -9.340  -0.011   0.002   0.023  -0.004  -9.458
 -0.002  -0.029  -0.011  -9.334  -0.013  -0.002  -0.028  -0.011
 -0.000   0.003   0.002  -0.013  -9.291  -0.000   0.003   0.002
 -9.418  -0.009   0.023  -0.002  -0.000  -9.521  -0.009   0.022
 -0.009  -9.445  -0.004  -0.028   0.003  -0.009  -9.547  -0.004
  0.023  -0.004  -9.458  -0.011   0.002   0.022  -0.004  -9.560
 -0.002  -0.028  -0.011  -9.452  -0.013  -0.002  -0.027  -0.011
 -0.000   0.003   0.002  -0.013  -9.410  -0.000   0.003   0.002
  0.031  -0.004   0.018   0.005   0.002   0.031  -0.004   0.018
  0.045  -0.007   0.026   0.007   0.003   0.045  -0.007   0.026
  0.015   0.029  -0.006  -0.000  -0.011   0.015   0.028  -0.006
 -0.000   0.010   0.033   0.015  -0.000  -0.000   0.010   0.032
  0.010  -0.000  -0.009   0.029   0.015   0.010  -0.000  -0.009
  0.016   0.032  -0.006  -0.000  -0.012   0.016   0.031  -0.006
 -0.000   0.012   0.036   0.018   0.000  -0.000   0.012   0.035
  0.011  -0.000  -0.009   0.032   0.017   0.010  -0.000  -0.009
 total augmentation occupancy for first ion, spin component:           1
  3.346   0.249  -0.527   0.180   0.055  -1.315  -0.187   0.542  -0.128  -0.054  -1.234   0.212   0.176  -0.028   0.171   0.009
  0.249   3.436  -0.218   0.451   0.093  -0.188  -1.418   0.176  -0.602  -0.101   0.142   0.044   0.171  -0.008   0.114   0.024
 -0.527  -0.218   4.134  -0.008  -0.047   0.541   0.176  -2.085  -0.065   0.042  -0.742   0.188  -0.179   0.340  -0.154  -0.004
  0.180   0.451  -0.008   3.509   0.072  -0.129  -0.602  -0.065  -1.521  -0.105  -0.244   0.132   0.097   0.070   0.169  -0.004
  0.055   0.093  -0.047   0.072   3.028  -0.054  -0.101   0.042  -0.105  -0.857  -0.089   0.027   0.003  -0.001   0.058  -0.011
 -1.315  -0.188   0.541  -0.129  -0.054   1.253   0.142  -0.553   0.090   0.053   1.103  -0.245  -0.191   0.000  -0.185   0.007
 -0.187  -1.418   0.176  -0.602  -0.101   0.142   1.368  -0.143   0.719   0.104  -0.142  -0.013  -0.192  -0.005  -0.106   0.004
  0.542   0.176  -2.085  -0.065   0.042  -0.553  -0.143   2.014   0.122  -0.038   0.650  -0.184   0.167  -0.372   0.144  -0.003
 -0.128  -0.602  -0.065  -1.521  -0.105   0.090   0.719   0.122   1.495   0.133   0.198  -0.103  -0.093  -0.092  -0.195   0.004
 -0.054  -0.101   0.042  -0.105  -0.857   0.053   0.104  -0.038   0.133   0.685   0.077  -0.025   0.008  -0.002  -0.073   0.001
 -1.234   0.142  -0.742  -0.244  -0.089   1.103  -0.142   0.650   0.198   0.077   2.181  -0.482  -0.096  -0.268  -0.144   0.007
  0.212   0.044   0.188   0.132   0.027  -0.245  -0.013  -0.184  -0.103  -0.025  -0.482   0.115   0.026   0.071   0.038  -0.002
  0.176   0.171  -0.179   0.097   0.003  -0.191  -0.192   0.167  -0.093   0.008  -0.096   0.026   0.076  -0.028   0.054  -0.003
 -0.028  -0.008   0.340   0.070  -0.001   0.000  -0.005  -0.372  -0.092  -0.002  -0.268   0.071  -0.028   0.100  -0.017  -0.000
  0.171   0.114  -0.154   0.169   0.058  -0.185  -0.106   0.144  -0.195  -0.073  -0.144   0.038   0.054  -0.017   0.077  -0.002
  0.009   0.024  -0.004  -0.004  -0.011   0.007   0.004  -0.003   0.004   0.001   0.007  -0.002  -0.003  -0.000  -0.002   0.001
 -0.006   0.009   0.019   0.009  -0.001   0.006  -0.000   0.014   0.004   0.001   0.018  -0.004  -0.000  -0.005  -0.001   0.000
  0.003  -0.004  -0.009   0.023   0.014   0.008   0.004  -0.001   0.005   0.001   0.010  -0.002  -0.002  -0.001  -0.003   0.000


------------------------ aborting loop because EDIFF is reached ----------------------------------------


    FORLOC:  cpu time      0.0020: real time      0.0020
    FORNL :  cpu time      0.0958: real time      0.0959
    STRESS:  cpu time      0.2794: real time      0.2796
    FORCOR:  cpu time      0.0988: real time      0.0988
    OFIELD:  cpu time      0.0005: real time      0.0005

  Hirshfeld charges:
            ion         q(e)     
   ------------------------------
      1     Au          0.083
      2     Au          0.083
      3     Au         -0.083
      4     Au         -0.083

  Hirshfeld-I charges:
            ion         q(e)        dq(e)    
   ------------------------------------------
      1     Au          0.161     -0.339E-04
      2     Au          0.161     -0.338E-04
      3     Au         -0.161      0.338E-04
      4     Au         -0.161      0.339E-04

   Hirshfeld-I converged in  11 cycles. Convergence criterion |dq|< 0.500E-04 e

  Atomic reference data used in the T-S method for vdW correction:
            C6at              R0at           ALPHAat      REFSTATE
            (au)              (au)            (au)                
   ---------------------------------------------------------------
   Au        298.000          3.855         36.500         0

  Tkatchenko/Scheffler method for vdW energy calculation
  ---------------------------------------------------------------------------------------------

  Parameters of vdW forcefield:
            C6ts              R0ts           ALPHAts        RELVOL
            (au)              (au)            (au)                
   ---------------------------------------------------------------
   Au        266.414          3.784         34.511          0.94551647
   Au        266.412          3.784         34.511          0.94551270
   Au        346.322          3.953         39.348          1.07802877
   Au        346.319          3.953         39.348          1.07802440

  vdW correction parametrized for the method   %	    

  IVDW =  21
  VDW_RADIUS =    50.000 A
  VDW_IDAMPF =  0
  VDW_S6 =     1.000
  VDW_SR =     0.600
  VDW_D =    20.000
  LVDW_ONECELL = F F F
  LVDW_SAMETYPE T
  LVDW_EWALD = F

  Number of pair interactions contributing to vdW energy:     761
  Edisp (eV):   -2.16097
    FORVDW:  cpu time     33.2205: real time     33.2219

  FORCE on cell =-STRESS in cart. coord.  units (eV):
  Direction    XX          YY          ZZ          XY          YZ          ZX
  --------------------------------------------------------------------------------------
  Alpha Z     2.32959     2.32959     2.32959
  Ewald     399.95967   368.90833   936.61858   997.18667  -437.35843  -225.04958
  Hartree  1630.14105  1615.07497  1996.47739   728.55352  -339.99645  -191.32651
  E(xc)    -198.27350  -198.34239  -197.43389     1.42583    -0.56053    -0.23645
  Local   -2712.64176 -2668.82389 -3598.64966 -1705.78719   773.32267   418.07503
  n-local   -12.07529   -10.95771   -20.04696    -9.00136     1.58944    -1.07006
  augment   269.82789   270.15134   267.26582    -3.24594     0.80216    -0.08438
  Kinetic   621.43887   622.34067   614.55707    -8.38018     1.87638    -0.47288
  Fock        0.00000     0.00000     0.00000     0.00000     0.00000     0.00000
  vdW        -1.65140    -1.56854    -2.60158    -1.58075     0.60239     0.23818
  -------------------------------------------------------------------------------------
  Total      -0.94487    -0.88762    -1.48363    -0.82940     0.27762     0.07335
  in kB      -0.18923    -0.17777    -0.29713    -0.16611     0.05560     0.01469
  external pressure =       -0.22 kB  Pullay stress =        0.00 kB


 VOLUME and BASIS-vectors are now :
 -----------------------------------------------------------------------------
  energy-cutoff  :      520.00
  volume of cell :     8000.00
      direct lattice vectors                 reciprocal lattice vectors
    20.000000000  0.000000000  0.000000000     0.050000000  0.000000000  0.000000000
     0.000000000 20.000000000  0.000000000     0.000000000  0.050000000  0.000000000
     0.000000000  0.000000000 20.000000000     0.000000000  0.000000000  0.050000000

  length of vectors
    20.000000000 20.000000000 20.000000000     0.050000000  0.050000000  0.050000000


 FORCES acting on ions:
    Electron-Ion                     Ewald-Force                    Non-Local-Force
 -----------------------------------------------------------------------------------------------
   -.224E+03 -.150E+03 -.416E+03   0.222E+03 0.148E+03 0.412E+03   0.238E+01 0.159E+01 0.443E+01
   0.225E+03 0.149E+03 0.416E+03   -.223E+03 -.148E+03 -.412E+03   -.239E+01 -.158E+01 -.443E+01
   0.292E+03 0.313E+03 -.269E+03   -.289E+03 -.310E+03 0.267E+03   -.322E+01 -.347E+01 0.298E+01
   -.292E+03 -.312E+03 0.270E+03   0.289E+03 0.309E+03 -.267E+03   0.324E+01 0.345E+01 -.299E+01
 -----------------------------------------------------------------------------------------------
   -.704E-02 0.837E-02 0.144E-02   0.000E+00 0.000E+00 0.000E+00   0.589E-02 -.809E-02 -.113E-02


 POSITION                                       TOTAL-FORCE (eV/Angst)
 -----------------------------------------------------------------------------------
      0.58982      0.39443      1.09602        -0.224923     -0.150248     -0.413048
     19.40825     19.60762     18.90421         0.227034      0.147476      0.413326
     18.65965     18.56233      1.23826         0.228814      0.247191     -0.208848
      1.34228      1.43562     18.76151        -0.230925     -0.244419      0.208570
 -----------------------------------------------------------------------------------
    total drift:                               -0.001154      0.000277      0.000307


--------------------------------------------------------------------------------------------------------



  FREE ENERGIE OF THE ION-ELECTRON SYSTEM (eV)
  ---------------------------------------------------
  free  energy   TOTEN  =        -8.31541813 eV

  energy  without entropy=       -8.31541813  energy(sigma->0) =       -8.31541813



--------------------------------------------------------------------------------------------------------


    POTLOK:  cpu time      0.2386: real time      0.2386


--------------------------------------------------------------------------------------------------------


     LOOP+:  cpu time     47.8891: real time     48.0957
    4ORBIT:  cpu time      0.0000: real time      0.0000

 total amount of memory used by VASP MPI-rank0   107811. kBytes
=======================================================================

   base      :      30000. kBytes
   nonlr-proj:       1446. kBytes
   fftplans  :      30789. kBytes
   grid      :      42969. kBytes
   one-center:         15. kBytes
   wavefun   :       2592. kBytes

  
  
 General timing and accounting informations for this job:
 ========================================================
  
                  Total CPU time used (sec):       61.535
                            User time (sec):       59.738
                          System time (sec):        1.797
                         Elapsed time (sec):       66.762
  
                   Maximum memory used (kb):      229608.
                   Average memory used (kb):          N/A
  
                          Minor page faults:        35063
                          Major page faults:           48
                 Voluntary context switches:         6827
