 **********************************************************************
                          MRCC program system
 **********************************************************************
 
                              Written by
     Mihaly Kallay, Peter R. Nagy, David Mester, Laszlo Gyevi-Nagy,
        Jozsef Csoka, P. Bernat Szabo, Zoltan Rolik, Gyula Samu,
     Jozsef Csontos, Bence Hegely, Adam Ganyecz, Istvan Ladjanszki,
       Lorant Szegedy, Bence Ladoczki, Klara Petrov, Mate Farkas,
                    Pal D. Mezei, and Reka A. Horvath
 
        Department of Physical Chemistry and Materials Science
            Budapest University of Technology and Economics
                  Budapest P.O.Box 91, H-1521 Hungary
 
                              www.mrcc.hu
 
                      Release date: March 18, 2022

 ************************ 2023-02-15 03:30:06 *************************
 Executing minp...

 Reading input from MINP...
 
 Input file:
 
calc=LB2PLYP
verbosity=3
mem=220GB
symm=off
unit=angs
scfiguess=small
scfalg=locfit1
lcorthr=tight
bpedo=0.99999
ECP=MCDHF-ECP-28
basis=bse_ACVTZ
basis_sm=def2-SVP
dfbasis_scf=def2-QZVPP-RI-JK
dfbasis_cor=bse_ACVTZ_mp2fit
core=0
unit=angs
geom=xyz
6
Ag6_2
Ag    -0.22155627    -0.77225692     0.63187260
Ag    -1.63684801    -0.57910561    -1.62358490
Ag    -1.98358381     1.22709558     0.47292128
Ag     0.47405280     1.55212998     1.74725388
Ag     2.33704250    -0.04359935     0.41836122
Ag     1.03089279    -1.38426369    -1.64682407

ghost=serialno


 
 
 Checking keyword combinations...
 
 Keywords:
 
 active=none
 agrid=ld0006-ld0590
 agrid_pssp=ld0006-ld0194
 agrid_pssp_sm=ld0006-ld0074
 basis=bse_acvtz
 basis_sm=def2-svp
 basopt=off
 bfbasis=none
 bfgsmem=10
 bfgstol=1.0d-3
 bpcompo=0.985
 bpcompv=0.98
 bpdfo=0.985
 bpocc=0.99999
 bppdo=0.999d0
 bppdv=0.98
 bpedo=0.99999
 bpedv=0.995d0
 calc=mp2
 ccmaxit=50
 ccprog=mrcc
 ccsdalg=disk
 ccsdmkl=seq
 ccsdrest=off
 ccsdthreads=2
 cctol=5
 charge=0
 cialg=direct
 ciguess=off
 cmpgrp=auto
 comprest=off
 core=corr
 corembed=off
 csapprox=off
 cvs=off
 dboc=off
 delocsomofact=
 dendec=cholesky
 dens=0
 dfalg=lineq
 dfbasis_cab=none
 dfbasis_cor=bse_acvtz_mp2fit
 dfbasis_scf=def2-qzvpp-ri-jk
 dfbasis_scf_sm=def2-qzvpp-ri-jk
 dfintran=drpa
 dft=b2plyp
 dhexc=adc(2)
 diag=david
 docc=
 domrad=10.d0
 drpaalg=auto
 dual=off
 dual_df=off
 ecp=mcdhf-ecp-28
 edisp=off
 edisp_embed=off
 embed=off
 etemp=300
 epert=none
 eps=
 espcharge=off
 excrad=1.0
 excrad_fin=0.100000000D-02
 fitting=coulomb
 fmm=off
 fmmord=8
 freq=off
 gamma=1.d0
 gauss=spher
 geom=xyz
 gopt=off
 ghost=serialno
 gtol=7
 grdens=off
 gridbatch_cos=2000
 grtol=10
 guido_ct=off
 hamilton=dc
 iface=none
 intalg=auto
 itol=10
 laptol=1.d-3
 lccoporder=trffirst
 lcorthr=tight
 lccrest=off
 lmp2dens=on
 lnoepso=0.d0
 lnoepsv=1e-6
 boysalg=jacobi
 localcc=2021
 localcorrsymm=off
 locintrf=directai
 mact=
 maxact=off
 maxdim=100
 maxex=0
 maxmicroit=100
 mcscfiguess=hf
 mem=220gb
 mmprog=
 molden=on
 mpitasks=1
 mulmet=3
 mult=
 nacto=0
 nactv=0
 naf_amp=1.d-2
 naf_cor=off
 naf_scf=off
 nafalg=albe
 naftyp=
 nchol=auto
 ndeps=1e-3
 nstate=1
 nsing=0
 nto=off
 ntrip=0
 occ=
 occri=off
 oniom=off
 oniom_eechg=off
 oniom_pcm=off
 oniom_qcorr=off
 optalg=
 optmaxit=50
 optetol=1e-6
 optex=0
 optgtol=1e-4
 optstol=1e-3
 orblocc=boys
 orbloce=off
 orbloco=boys
 orblocv=pao
 orblocguess=cholesky
 osveps=-1.d0
 ovirt=off
 ovltol=1e-7
 ovosnorb=80.0
 pcm=off
 popul=off
 pressure=100000
 pssp=off
 ptfreq=0.0
 ptthreads=2
 qro=off
 qscf=off
 qmmm=off
 redcost_exc=off
 redcost_tddft=0.985d0
 refdet=none
 rest=0
 rgrid=log3
 rism=off
 rohfcore=standard
 rohftype=semicanonical
 scfalg=locfit1
 scf_conv=difficult
 scfdamp=0.7d0
 scfdamp_mode=1
 scfdamp_end=3
 scfdamp_dampstep=0.d0
 scfdamp_dtol=0.0d0
 scfdamp_maxfact=0.7d0
 scfdamp_minfact=0.7d0
 scfdiis=on
 scfdiis_dtol=0.0d0
 scfdiis_end=50
 scfdiis_start=2
 scfdiis_step=1
 scfdiis_watch=off
 scfdiis_wrange=10
 scfdiis_wlimit=5
 scfdiis_delmax=2
 scfdtol=7
 scfext=10
 scfguessdens=
 scfiguess=small
 scfloc=pm
 scflshift=0.20
 scflshift_end=8
 scflshift_dtol=0.0
 scflshift_gaptol=0.20
 scfmaxit=50
 scftype=
 scftol=6
 scspe=1.d0
 scsph=1.d0
 scsps=1.2d0
 scsps_t=1.2d0
 scspt=0.33333333333333
 scspt_t=0.33333333333333
 scspv=1.d0
 spairtol=-1.d0
 sqmprog=
 subminp=top
 symm=0
 talg=lapl
 temp=298.15
 test=off
 theodore=off
 tlmo=0.999
 tpao=0.94
 tprint=off
 uncontract=off
 unit=angs
 usedisk=2
 verbosity=3
 wpairtol=3.d-6
 
 Calculating integrals for small-basis SCF...

 ************************ 2023-02-15 03:30:07 *************************
 Executing integ...

 Allocation of 220.0 Gbytes of memory...
 
 
 Number of atoms:                  6
 Charge:                           0
 Number of electrons:            114
 Number of core electrons:        48
 Spin multiplicity:                1
 
                 Cartesian coordinates [bohr]      Atomic mass [AMU]  Z
   1  Ag   -0.41868067   -1.45935408    1.19406616   106.905092      47
   2  Ag   -3.09319445   -1.09435100   -3.06813080   106.905092      47
   3  Ag   -3.74843015    2.31887458    0.89369170   106.905092      47
   4  Ag    0.89582996    2.93310057    3.30183130   106.905092      47
   5  Ag    4.41637027   -0.08239083    0.79058813   106.905092      47
   6  Ag    1.94810504   -2.61587926   -3.11204647   106.905092      47
 
 This molecule is an asymmetric top.
 
 Point group: C1  
 Computational point group: C1  
 
 Cartesian coordinates in standard orientation [bohr]
   1  Ag    0.00143544    0.00050128    1.93152776
   2  Ag   -2.15225016   -3.92291583   -0.39677863
   3  Ag    3.07587756   -3.25801623   -0.38845876
   4  Ag    4.06160112    1.91631073   -0.37259872
   5  Ag   -0.57121358    4.43217576   -0.40703467
   6  Ag   -4.41545039    0.83194429   -0.36665699
 
 Nuclear repulsion energy [au]:        912.082515426274
 
 
 Basis set information:
 
 Maximum angular momentum: i
 Maximum number of contracted Gaussians:   11
 Maximum number of primitive Gaussians:    13
 Spherical harmonic GTOs are used.
 
 
 Conventional basis set:
 
   1  Ag def2-svp [ 7s 6p 5d 1f | 5s 3p 2d 1f ]
   2  Ag def2-svp [ 7s 6p 5d 1f | 5s 3p 2d 1f ]
   3  Ag def2-svp [ 7s 6p 5d 1f | 5s 3p 2d 1f ]
   4  Ag def2-svp [ 7s 6p 5d 1f | 5s 3p 2d 1f ]
   5  Ag def2-svp [ 7s 6p 5d 1f | 5s 3p 2d 1f ]
   6  Ag def2-svp [ 7s 6p 5d 1f | 5s 3p 2d 1f ]
 
 Basis functions:
            1             2             3             4             5             6             7             8             9            10
    0    1Ag1s         1Ag2s         1Ag3s         1Ag4s         1Ag5s         1Ag1pz        1Ag1py        1Ag1px        1Ag2pz        1Ag2py    
    1    1Ag2px        1Ag3pz        1Ag3py        1Ag3px        1Ag1d-2       1Ag1d-1       1Ag1d0        1Ag1d+1       1Ag1d+2       1Ag2d-2   
    2    1Ag2d-1       1Ag2d0        1Ag2d+1       1Ag2d+2       1Ag1f-3       1Ag1f-2       1Ag1f-1       1Ag1f0        1Ag1f+1       1Ag1f+2   
    3    1Ag1f+3       2Ag1s         2Ag2s         2Ag3s         2Ag4s         2Ag5s         2Ag1pz        2Ag1py        2Ag1px        2Ag2pz    
    4    2Ag2py        2Ag2px        2Ag3pz        2Ag3py        2Ag3px        2Ag1d-2       2Ag1d-1       2Ag1d0        2Ag1d+1       2Ag1d+2   
    5    2Ag2d-2       2Ag2d-1       2Ag2d0        2Ag2d+1       2Ag2d+2       2Ag1f-3       2Ag1f-2       2Ag1f-1       2Ag1f0        2Ag1f+1   
    6    2Ag1f+2       2Ag1f+3       3Ag1s         3Ag2s         3Ag3s         3Ag4s         3Ag5s         3Ag1pz        3Ag1py        3Ag1px    
    7    3Ag2pz        3Ag2py        3Ag2px        3Ag3pz        3Ag3py        3Ag3px        3Ag1d-2       3Ag1d-1       3Ag1d0        3Ag1d+1   
    8    3Ag1d+2       3Ag2d-2       3Ag2d-1       3Ag2d0        3Ag2d+1       3Ag2d+2       3Ag1f-3       3Ag1f-2       3Ag1f-1       3Ag1f0    
    9    3Ag1f+1       3Ag1f+2       3Ag1f+3       4Ag1s         4Ag2s         4Ag3s         4Ag4s         4Ag5s         4Ag1pz        4Ag1py    
   10    4Ag1px        4Ag2pz        4Ag2py        4Ag2px        4Ag3pz        4Ag3py        4Ag3px        4Ag1d-2       4Ag1d-1       4Ag1d0    
   11    4Ag1d+1       4Ag1d+2       4Ag2d-2       4Ag2d-1       4Ag2d0        4Ag2d+1       4Ag2d+2       4Ag1f-3       4Ag1f-2       4Ag1f-1   
   12    4Ag1f0        4Ag1f+1       4Ag1f+2       4Ag1f+3       5Ag1s         5Ag2s         5Ag3s         5Ag4s         5Ag5s         5Ag1pz    
   13    5Ag1py        5Ag1px        5Ag2pz        5Ag2py        5Ag2px        5Ag3pz        5Ag3py        5Ag3px        5Ag1d-2       5Ag1d-1   
   14    5Ag1d0        5Ag1d+1       5Ag1d+2       5Ag2d-2       5Ag2d-1       5Ag2d0        5Ag2d+1       5Ag2d+2       5Ag1f-3       5Ag1f-2   
   15    5Ag1f-1       5Ag1f0        5Ag1f+1       5Ag1f+2       5Ag1f+3       6Ag1s         6Ag2s         6Ag3s         6Ag4s         6Ag5s     
   16    6Ag1pz        6Ag1py        6Ag1px        6Ag2pz        6Ag2py        6Ag2px        6Ag3pz        6Ag3py        6Ag3px        6Ag1d-2   
   17    6Ag1d-1       6Ag1d0        6Ag1d+1       6Ag1d+2       6Ag2d-2       6Ag2d-1       6Ag2d0        6Ag2d+1       6Ag2d+2       6Ag1f-3   
   18    6Ag1f-2       6Ag1f-1       6Ag1f0        6Ag1f+1       6Ag1f+2       6Ag1f+3   
 
 Maximum number of basis functions per shell:   10
 Total number of basis functions:    186
 
 
 Fitting basis set for the SCF calculation:
 
   1  Ag def2-qzvpp-ri-jk [ 13s 12p 10d 9f 6g 3h 2i | 11s 10p 9d 8f 6g 3h 2i ]
   2  Ag def2-qzvpp-ri-jk [ 13s 12p 10d 9f 6g 3h 2i | 11s 10p 9d 8f 6g 3h 2i ]
   3  Ag def2-qzvpp-ri-jk [ 13s 12p 10d 9f 6g 3h 2i | 11s 10p 9d 8f 6g 3h 2i ]
   4  Ag def2-qzvpp-ri-jk [ 13s 12p 10d 9f 6g 3h 2i | 11s 10p 9d 8f 6g 3h 2i ]
   5  Ag def2-qzvpp-ri-jk [ 13s 12p 10d 9f 6g 3h 2i | 11s 10p 9d 8f 6g 3h 2i ]
   6  Ag def2-qzvpp-ri-jk [ 13s 12p 10d 9f 6g 3h 2i | 11s 10p 9d 8f 6g 3h 2i ]
 
 Basis functions:
            1             2             3             4             5             6             7             8             9            10
    0    1Ag1s         1Ag2s         1Ag3s         1Ag4s         1Ag5s         1Ag6s         1Ag7s         1Ag8s         1Ag9s         1Ag10s    
    1    1Ag11s        1Ag1pz        1Ag1py        1Ag1px        1Ag2pz        1Ag2py        1Ag2px        1Ag3pz        1Ag3py        1Ag3px    
    2    1Ag4pz        1Ag4py        1Ag4px        1Ag5pz        1Ag5py        1Ag5px        1Ag6pz        1Ag6py        1Ag6px        1Ag7pz    
    3    1Ag7py        1Ag7px        1Ag8pz        1Ag8py        1Ag8px        1Ag9pz        1Ag9py        1Ag9px        1Ag10pz       1Ag10py   
    4    1Ag10px       1Ag1d-2       1Ag1d-1       1Ag1d0        1Ag1d+1       1Ag1d+2       1Ag2d-2       1Ag2d-1       1Ag2d0        1Ag2d+1   
    5    1Ag2d+2       1Ag3d-2       1Ag3d-1       1Ag3d0        1Ag3d+1       1Ag3d+2       1Ag4d-2       1Ag4d-1       1Ag4d0        1Ag4d+1   
    6    1Ag4d+2       1Ag5d-2       1Ag5d-1       1Ag5d0        1Ag5d+1       1Ag5d+2       1Ag6d-2       1Ag6d-1       1Ag6d0        1Ag6d+1   
    7    1Ag6d+2       1Ag7d-2       1Ag7d-1       1Ag7d0        1Ag7d+1       1Ag7d+2       1Ag8d-2       1Ag8d-1       1Ag8d0        1Ag8d+1   
    8    1Ag8d+2       1Ag9d-2       1Ag9d-1       1Ag9d0        1Ag9d+1       1Ag9d+2       1Ag1f-3       1Ag1f-2       1Ag1f-1       1Ag1f0    
    9    1Ag1f+1       1Ag1f+2       1Ag1f+3       1Ag2f-3       1Ag2f-2       1Ag2f-1       1Ag2f0        1Ag2f+1       1Ag2f+2       1Ag2f+3   
   10    1Ag3f-3       1Ag3f-2       1Ag3f-1       1Ag3f0        1Ag3f+1       1Ag3f+2       1Ag3f+3       1Ag4f-3       1Ag4f-2       1Ag4f-1   
   11    1Ag4f0        1Ag4f+1       1Ag4f+2       1Ag4f+3       1Ag5f-3       1Ag5f-2       1Ag5f-1       1Ag5f0        1Ag5f+1       1Ag5f+2   
   12    1Ag5f+3       1Ag6f-3       1Ag6f-2       1Ag6f-1       1Ag6f0        1Ag6f+1       1Ag6f+2       1Ag6f+3       1Ag7f-3       1Ag7f-2   
   13    1Ag7f-1       1Ag7f0        1Ag7f+1       1Ag7f+2       1Ag7f+3       1Ag8f-3       1Ag8f-2       1Ag8f-1       1Ag8f0        1Ag8f+1   
   14    1Ag8f+2       1Ag8f+3       1Ag1g-4       1Ag1g-3       1Ag1g-2       1Ag1g-1       1Ag1g0        1Ag1g+1       1Ag1g+2       1Ag1g+3   
   15    1Ag1g+4       1Ag2g-4       1Ag2g-3       1Ag2g-2       1Ag2g-1       1Ag2g0        1Ag2g+1       1Ag2g+2       1Ag2g+3       1Ag2g+4   
   16    1Ag3g-4       1Ag3g-3       1Ag3g-2       1Ag3g-1       1Ag3g0        1Ag3g+1       1Ag3g+2       1Ag3g+3       1Ag3g+4       1Ag4g-4   
   17    1Ag4g-3       1Ag4g-2       1Ag4g-1       1Ag4g0        1Ag4g+1       1Ag4g+2       1Ag4g+3       1Ag4g+4       1Ag5g-4       1Ag5g-3   
   18    1Ag5g-2       1Ag5g-1       1Ag5g0        1Ag5g+1       1Ag5g+2       1Ag5g+3       1Ag5g+4       1Ag6g-4       1Ag6g-3       1Ag6g-2   
   19    1Ag6g-1       1Ag6g0        1Ag6g+1       1Ag6g+2       1Ag6g+3       1Ag6g+4       1Ag1h-5       1Ag1h-4       1Ag1h-3       1Ag1h-2   
   20    1Ag1h-1       1Ag1h0        1Ag1h+1       1Ag1h+2       1Ag1h+3       1Ag1h+4       1Ag1h+5       1Ag2h-5       1Ag2h-4       1Ag2h-3   
   21    1Ag2h-2       1Ag2h-1       1Ag2h0        1Ag2h+1       1Ag2h+2       1Ag2h+3       1Ag2h+4       1Ag2h+5       1Ag3h-5       1Ag3h-4   
   22    1Ag3h-3       1Ag3h-2       1Ag3h-1       1Ag3h0        1Ag3h+1       1Ag3h+2       1Ag3h+3       1Ag3h+4       1Ag3h+5       1Ag1i-6   
   23    1Ag1i-5       1Ag1i-4       1Ag1i-3       1Ag1i-2       1Ag1i-1       1Ag1i0        1Ag1i+1       1Ag1i+2       1Ag1i+3       1Ag1i+4   
   24    1Ag1i+5       1Ag1i+6       1Ag2i-6       1Ag2i-5       1Ag2i-4       1Ag2i-3       1Ag2i-2       1Ag2i-1       1Ag2i0        1Ag2i+1   
   25    1Ag2i+2       1Ag2i+3       1Ag2i+4       1Ag2i+5       1Ag2i+6       2Ag1s         2Ag2s         2Ag3s         2Ag4s         2Ag5s     
   26    2Ag6s         2Ag7s         2Ag8s         2Ag9s         2Ag10s        2Ag11s        2Ag1pz        2Ag1py        2Ag1px        2Ag2pz    
   27    2Ag2py        2Ag2px        2Ag3pz        2Ag3py        2Ag3px        2Ag4pz        2Ag4py        2Ag4px        2Ag5pz        2Ag5py    
   28    2Ag5px        2Ag6pz        2Ag6py        2Ag6px        2Ag7pz        2Ag7py        2Ag7px        2Ag8pz        2Ag8py        2Ag8px    
   29    2Ag9pz        2Ag9py        2Ag9px        2Ag10pz       2Ag10py       2Ag10px       2Ag1d-2       2Ag1d-1       2Ag1d0        2Ag1d+1   
   30    2Ag1d+2       2Ag2d-2       2Ag2d-1       2Ag2d0        2Ag2d+1       2Ag2d+2       2Ag3d-2       2Ag3d-1       2Ag3d0        2Ag3d+1   
   31    2Ag3d+2       2Ag4d-2       2Ag4d-1       2Ag4d0        2Ag4d+1       2Ag4d+2       2Ag5d-2       2Ag5d-1       2Ag5d0        2Ag5d+1   
   32    2Ag5d+2       2Ag6d-2       2Ag6d-1       2Ag6d0        2Ag6d+1       2Ag6d+2       2Ag7d-2       2Ag7d-1       2Ag7d0        2Ag7d+1   
   33    2Ag7d+2       2Ag8d-2       2Ag8d-1       2Ag8d0        2Ag8d+1       2Ag8d+2       2Ag9d-2       2Ag9d-1       2Ag9d0        2Ag9d+1   
   34    2Ag9d+2       2Ag1f-3       2Ag1f-2       2Ag1f-1       2Ag1f0        2Ag1f+1       2Ag1f+2       2Ag1f+3       2Ag2f-3       2Ag2f-2   
   35    2Ag2f-1       2Ag2f0        2Ag2f+1       2Ag2f+2       2Ag2f+3       2Ag3f-3       2Ag3f-2       2Ag3f-1       2Ag3f0        2Ag3f+1   
   36    2Ag3f+2       2Ag3f+3       2Ag4f-3       2Ag4f-2       2Ag4f-1       2Ag4f0        2Ag4f+1       2Ag4f+2       2Ag4f+3       2Ag5f-3   
   37    2Ag5f-2       2Ag5f-1       2Ag5f0        2Ag5f+1       2Ag5f+2       2Ag5f+3       2Ag6f-3       2Ag6f-2       2Ag6f-1       2Ag6f0    
   38    2Ag6f+1       2Ag6f+2       2Ag6f+3       2Ag7f-3       2Ag7f-2       2Ag7f-1       2Ag7f0        2Ag7f+1       2Ag7f+2       2Ag7f+3   
   39    2Ag8f-3       2Ag8f-2       2Ag8f-1       2Ag8f0        2Ag8f+1       2Ag8f+2       2Ag8f+3       2Ag1g-4       2Ag1g-3       2Ag1g-2   
   40    2Ag1g-1       2Ag1g0        2Ag1g+1       2Ag1g+2       2Ag1g+3       2Ag1g+4       2Ag2g-4       2Ag2g-3       2Ag2g-2       2Ag2g-1   
   41    2Ag2g0        2Ag2g+1       2Ag2g+2       2Ag2g+3       2Ag2g+4       2Ag3g-4       2Ag3g-3       2Ag3g-2       2Ag3g-1       2Ag3g0    
   42    2Ag3g+1       2Ag3g+2       2Ag3g+3       2Ag3g+4       2Ag4g-4       2Ag4g-3       2Ag4g-2       2Ag4g-1       2Ag4g0        2Ag4g+1   
   43    2Ag4g+2       2Ag4g+3       2Ag4g+4       2Ag5g-4       2Ag5g-3       2Ag5g-2       2Ag5g-1       2Ag5g0        2Ag5g+1       2Ag5g+2   
   44    2Ag5g+3       2Ag5g+4       2Ag6g-4       2Ag6g-3       2Ag6g-2       2Ag6g-1       2Ag6g0        2Ag6g+1       2Ag6g+2       2Ag6g+3   
   45    2Ag6g+4       2Ag1h-5       2Ag1h-4       2Ag1h-3       2Ag1h-2       2Ag1h-1       2Ag1h0        2Ag1h+1       2Ag1h+2       2Ag1h+3   
   46    2Ag1h+4       2Ag1h+5       2Ag2h-5       2Ag2h-4       2Ag2h-3       2Ag2h-2       2Ag2h-1       2Ag2h0        2Ag2h+1       2Ag2h+2   
   47    2Ag2h+3       2Ag2h+4       2Ag2h+5       2Ag3h-5       2Ag3h-4       2Ag3h-3       2Ag3h-2       2Ag3h-1       2Ag3h0        2Ag3h+1   
   48    2Ag3h+2       2Ag3h+3       2Ag3h+4       2Ag3h+5       2Ag1i-6       2Ag1i-5       2Ag1i-4       2Ag1i-3       2Ag1i-2       2Ag1i-1   
   49    2Ag1i0        2Ag1i+1       2Ag1i+2       2Ag1i+3       2Ag1i+4       2Ag1i+5       2Ag1i+6       2Ag2i-6       2Ag2i-5       2Ag2i-4   
   50    2Ag2i-3       2Ag2i-2       2Ag2i-1       2Ag2i0        2Ag2i+1       2Ag2i+2       2Ag2i+3       2Ag2i+4       2Ag2i+5       2Ag2i+6   
   51    3Ag1s         3Ag2s         3Ag3s         3Ag4s         3Ag5s         3Ag6s         3Ag7s         3Ag8s         3Ag9s         3Ag10s    
   52    3Ag11s        3Ag1pz        3Ag1py        3Ag1px        3Ag2pz        3Ag2py        3Ag2px        3Ag3pz        3Ag3py        3Ag3px    
   53    3Ag4pz        3Ag4py        3Ag4px        3Ag5pz        3Ag5py        3Ag5px        3Ag6pz        3Ag6py        3Ag6px        3Ag7pz    
   54    3Ag7py        3Ag7px        3Ag8pz        3Ag8py        3Ag8px        3Ag9pz        3Ag9py        3Ag9px        3Ag10pz       3Ag10py   
   55    3Ag10px       3Ag1d-2       3Ag1d-1       3Ag1d0        3Ag1d+1       3Ag1d+2       3Ag2d-2       3Ag2d-1       3Ag2d0        3Ag2d+1   
   56    3Ag2d+2       3Ag3d-2       3Ag3d-1       3Ag3d0        3Ag3d+1       3Ag3d+2       3Ag4d-2       3Ag4d-1       3Ag4d0        3Ag4d+1   
   57    3Ag4d+2       3Ag5d-2       3Ag5d-1       3Ag5d0        3Ag5d+1       3Ag5d+2       3Ag6d-2       3Ag6d-1       3Ag6d0        3Ag6d+1   
   58    3Ag6d+2       3Ag7d-2       3Ag7d-1       3Ag7d0        3Ag7d+1       3Ag7d+2       3Ag8d-2       3Ag8d-1       3Ag8d0        3Ag8d+1   
   59    3Ag8d+2       3Ag9d-2       3Ag9d-1       3Ag9d0        3Ag9d+1       3Ag9d+2       3Ag1f-3       3Ag1f-2       3Ag1f-1       3Ag1f0    
   60    3Ag1f+1       3Ag1f+2       3Ag1f+3       3Ag2f-3       3Ag2f-2       3Ag2f-1       3Ag2f0        3Ag2f+1       3Ag2f+2       3Ag2f+3   
   61    3Ag3f-3       3Ag3f-2       3Ag3f-1       3Ag3f0        3Ag3f+1       3Ag3f+2       3Ag3f+3       3Ag4f-3       3Ag4f-2       3Ag4f-1   
   62    3Ag4f0        3Ag4f+1       3Ag4f+2       3Ag4f+3       3Ag5f-3       3Ag5f-2       3Ag5f-1       3Ag5f0        3Ag5f+1       3Ag5f+2   
   63    3Ag5f+3       3Ag6f-3       3Ag6f-2       3Ag6f-1       3Ag6f0        3Ag6f+1       3Ag6f+2       3Ag6f+3       3Ag7f-3       3Ag7f-2   
   64    3Ag7f-1       3Ag7f0        3Ag7f+1       3Ag7f+2       3Ag7f+3       3Ag8f-3       3Ag8f-2       3Ag8f-1       3Ag8f0        3Ag8f+1   
   65    3Ag8f+2       3Ag8f+3       3Ag1g-4       3Ag1g-3       3Ag1g-2       3Ag1g-1       3Ag1g0        3Ag1g+1       3Ag1g+2       3Ag1g+3   
   66    3Ag1g+4       3Ag2g-4       3Ag2g-3       3Ag2g-2       3Ag2g-1       3Ag2g0        3Ag2g+1       3Ag2g+2       3Ag2g+3       3Ag2g+4   
   67    3Ag3g-4       3Ag3g-3       3Ag3g-2       3Ag3g-1       3Ag3g0        3Ag3g+1       3Ag3g+2       3Ag3g+3       3Ag3g+4       3Ag4g-4   
   68    3Ag4g-3       3Ag4g-2       3Ag4g-1       3Ag4g0        3Ag4g+1       3Ag4g+2       3Ag4g+3       3Ag4g+4       3Ag5g-4       3Ag5g-3   
   69    3Ag5g-2       3Ag5g-1       3Ag5g0        3Ag5g+1       3Ag5g+2       3Ag5g+3       3Ag5g+4       3Ag6g-4       3Ag6g-3       3Ag6g-2   
   70    3Ag6g-1       3Ag6g0        3Ag6g+1       3Ag6g+2       3Ag6g+3       3Ag6g+4       3Ag1h-5       3Ag1h-4       3Ag1h-3       3Ag1h-2   
   71    3Ag1h-1       3Ag1h0        3Ag1h+1       3Ag1h+2       3Ag1h+3       3Ag1h+4       3Ag1h+5       3Ag2h-5       3Ag2h-4       3Ag2h-3   
   72    3Ag2h-2       3Ag2h-1       3Ag2h0        3Ag2h+1       3Ag2h+2       3Ag2h+3       3Ag2h+4       3Ag2h+5       3Ag3h-5       3Ag3h-4   
   73    3Ag3h-3       3Ag3h-2       3Ag3h-1       3Ag3h0        3Ag3h+1       3Ag3h+2       3Ag3h+3       3Ag3h+4       3Ag3h+5       3Ag1i-6   
   74    3Ag1i-5       3Ag1i-4       3Ag1i-3       3Ag1i-2       3Ag1i-1       3Ag1i0        3Ag1i+1       3Ag1i+2       3Ag1i+3       3Ag1i+4   
   75    3Ag1i+5       3Ag1i+6       3Ag2i-6       3Ag2i-5       3Ag2i-4       3Ag2i-3       3Ag2i-2       3Ag2i-1       3Ag2i0        3Ag2i+1   
   76    3Ag2i+2       3Ag2i+3       3Ag2i+4       3Ag2i+5       3Ag2i+6       4Ag1s         4Ag2s         4Ag3s         4Ag4s         4Ag5s     
   77    4Ag6s         4Ag7s         4Ag8s         4Ag9s         4Ag10s        4Ag11s        4Ag1pz        4Ag1py        4Ag1px        4Ag2pz    
   78    4Ag2py        4Ag2px        4Ag3pz        4Ag3py        4Ag3px        4Ag4pz        4Ag4py        4Ag4px        4Ag5pz        4Ag5py    
   79    4Ag5px        4Ag6pz        4Ag6py        4Ag6px        4Ag7pz        4Ag7py        4Ag7px        4Ag8pz        4Ag8py        4Ag8px    
   80    4Ag9pz        4Ag9py        4Ag9px        4Ag10pz       4Ag10py       4Ag10px       4Ag1d-2       4Ag1d-1       4Ag1d0        4Ag1d+1   
   81    4Ag1d+2       4Ag2d-2       4Ag2d-1       4Ag2d0        4Ag2d+1       4Ag2d+2       4Ag3d-2       4Ag3d-1       4Ag3d0        4Ag3d+1   
   82    4Ag3d+2       4Ag4d-2       4Ag4d-1       4Ag4d0        4Ag4d+1       4Ag4d+2       4Ag5d-2       4Ag5d-1       4Ag5d0        4Ag5d+1   
   83    4Ag5d+2       4Ag6d-2       4Ag6d-1       4Ag6d0        4Ag6d+1       4Ag6d+2       4Ag7d-2       4Ag7d-1       4Ag7d0        4Ag7d+1   
   84    4Ag7d+2       4Ag8d-2       4Ag8d-1       4Ag8d0        4Ag8d+1       4Ag8d+2       4Ag9d-2       4Ag9d-1       4Ag9d0        4Ag9d+1   
   85    4Ag9d+2       4Ag1f-3       4Ag1f-2       4Ag1f-1       4Ag1f0        4Ag1f+1       4Ag1f+2       4Ag1f+3       4Ag2f-3       4Ag2f-2   
   86    4Ag2f-1       4Ag2f0        4Ag2f+1       4Ag2f+2       4Ag2f+3       4Ag3f-3       4Ag3f-2       4Ag3f-1       4Ag3f0        4Ag3f+1   
   87    4Ag3f+2       4Ag3f+3       4Ag4f-3       4Ag4f-2       4Ag4f-1       4Ag4f0        4Ag4f+1       4Ag4f+2       4Ag4f+3       4Ag5f-3   
   88    4Ag5f-2       4Ag5f-1       4Ag5f0        4Ag5f+1       4Ag5f+2       4Ag5f+3       4Ag6f-3       4Ag6f-2       4Ag6f-1       4Ag6f0    
   89    4Ag6f+1       4Ag6f+2       4Ag6f+3       4Ag7f-3       4Ag7f-2       4Ag7f-1       4Ag7f0        4Ag7f+1       4Ag7f+2       4Ag7f+3   
   90    4Ag8f-3       4Ag8f-2       4Ag8f-1       4Ag8f0        4Ag8f+1       4Ag8f+2       4Ag8f+3       4Ag1g-4       4Ag1g-3       4Ag1g-2   
   91    4Ag1g-1       4Ag1g0        4Ag1g+1       4Ag1g+2       4Ag1g+3       4Ag1g+4       4Ag2g-4       4Ag2g-3       4Ag2g-2       4Ag2g-1   
   92    4Ag2g0        4Ag2g+1       4Ag2g+2       4Ag2g+3       4Ag2g+4       4Ag3g-4       4Ag3g-3       4Ag3g-2       4Ag3g-1       4Ag3g0    
   93    4Ag3g+1       4Ag3g+2       4Ag3g+3       4Ag3g+4       4Ag4g-4       4Ag4g-3       4Ag4g-2       4Ag4g-1       4Ag4g0        4Ag4g+1   
   94    4Ag4g+2       4Ag4g+3       4Ag4g+4       4Ag5g-4       4Ag5g-3       4Ag5g-2       4Ag5g-1       4Ag5g0        4Ag5g+1       4Ag5g+2   
   95    4Ag5g+3       4Ag5g+4       4Ag6g-4       4Ag6g-3       4Ag6g-2       4Ag6g-1       4Ag6g0        4Ag6g+1       4Ag6g+2       4Ag6g+3   
   96    4Ag6g+4       4Ag1h-5       4Ag1h-4       4Ag1h-3       4Ag1h-2       4Ag1h-1       4Ag1h0        4Ag1h+1       4Ag1h+2       4Ag1h+3   
   97    4Ag1h+4       4Ag1h+5       4Ag2h-5       4Ag2h-4       4Ag2h-3       4Ag2h-2       4Ag2h-1       4Ag2h0        4Ag2h+1       4Ag2h+2   
   98    4Ag2h+3       4Ag2h+4       4Ag2h+5       4Ag3h-5       4Ag3h-4       4Ag3h-3       4Ag3h-2       4Ag3h-1       4Ag3h0        4Ag3h+1   
   99    4Ag3h+2       4Ag3h+3       4Ag3h+4       4Ag3h+5       4Ag1i-6       4Ag1i-5       4Ag1i-4       4Ag1i-3       4Ag1i-2       4Ag1i-1   
  100    4Ag1i0        4Ag1i+1       4Ag1i+2       4Ag1i+3       4Ag1i+4       4Ag1i+5       4Ag1i+6       4Ag2i-6       4Ag2i-5       4Ag2i-4   
  101    4Ag2i-3       4Ag2i-2       4Ag2i-1       4Ag2i0        4Ag2i+1       4Ag2i+2       4Ag2i+3       4Ag2i+4       4Ag2i+5       4Ag2i+6   
  102    5Ag1s         5Ag2s         5Ag3s         5Ag4s         5Ag5s         5Ag6s         5Ag7s         5Ag8s         5Ag9s         5Ag10s    
  103    5Ag11s        5Ag1pz        5Ag1py        5Ag1px        5Ag2pz        5Ag2py        5Ag2px        5Ag3pz        5Ag3py        5Ag3px    
  104    5Ag4pz        5Ag4py        5Ag4px        5Ag5pz        5Ag5py        5Ag5px        5Ag6pz        5Ag6py        5Ag6px        5Ag7pz    
  105    5Ag7py        5Ag7px        5Ag8pz        5Ag8py        5Ag8px        5Ag9pz        5Ag9py        5Ag9px        5Ag10pz       5Ag10py   
  106    5Ag10px       5Ag1d-2       5Ag1d-1       5Ag1d0        5Ag1d+1       5Ag1d+2       5Ag2d-2       5Ag2d-1       5Ag2d0        5Ag2d+1   
  107    5Ag2d+2       5Ag3d-2       5Ag3d-1       5Ag3d0        5Ag3d+1       5Ag3d+2       5Ag4d-2       5Ag4d-1       5Ag4d0        5Ag4d+1   
  108    5Ag4d+2       5Ag5d-2       5Ag5d-1       5Ag5d0        5Ag5d+1       5Ag5d+2       5Ag6d-2       5Ag6d-1       5Ag6d0        5Ag6d+1   
  109    5Ag6d+2       5Ag7d-2       5Ag7d-1       5Ag7d0        5Ag7d+1       5Ag7d+2       5Ag8d-2       5Ag8d-1       5Ag8d0        5Ag8d+1   
  110    5Ag8d+2       5Ag9d-2       5Ag9d-1       5Ag9d0        5Ag9d+1       5Ag9d+2       5Ag1f-3       5Ag1f-2       5Ag1f-1       5Ag1f0    
  111    5Ag1f+1       5Ag1f+2       5Ag1f+3       5Ag2f-3       5Ag2f-2       5Ag2f-1       5Ag2f0        5Ag2f+1       5Ag2f+2       5Ag2f+3   
  112    5Ag3f-3       5Ag3f-2       5Ag3f-1       5Ag3f0        5Ag3f+1       5Ag3f+2       5Ag3f+3       5Ag4f-3       5Ag4f-2       5Ag4f-1   
  113    5Ag4f0        5Ag4f+1       5Ag4f+2       5Ag4f+3       5Ag5f-3       5Ag5f-2       5Ag5f-1       5Ag5f0        5Ag5f+1       5Ag5f+2   
  114    5Ag5f+3       5Ag6f-3       5Ag6f-2       5Ag6f-1       5Ag6f0        5Ag6f+1       5Ag6f+2       5Ag6f+3       5Ag7f-3       5Ag7f-2   
  115    5Ag7f-1       5Ag7f0        5Ag7f+1       5Ag7f+2       5Ag7f+3       5Ag8f-3       5Ag8f-2       5Ag8f-1       5Ag8f0        5Ag8f+1   
  116    5Ag8f+2       5Ag8f+3       5Ag1g-4       5Ag1g-3       5Ag1g-2       5Ag1g-1       5Ag1g0        5Ag1g+1       5Ag1g+2       5Ag1g+3   
  117    5Ag1g+4       5Ag2g-4       5Ag2g-3       5Ag2g-2       5Ag2g-1       5Ag2g0        5Ag2g+1       5Ag2g+2       5Ag2g+3       5Ag2g+4   
  118    5Ag3g-4       5Ag3g-3       5Ag3g-2       5Ag3g-1       5Ag3g0        5Ag3g+1       5Ag3g+2       5Ag3g+3       5Ag3g+4       5Ag4g-4   
  119    5Ag4g-3       5Ag4g-2       5Ag4g-1       5Ag4g0        5Ag4g+1       5Ag4g+2       5Ag4g+3       5Ag4g+4       5Ag5g-4       5Ag5g-3   
  120    5Ag5g-2       5Ag5g-1       5Ag5g0        5Ag5g+1       5Ag5g+2       5Ag5g+3       5Ag5g+4       5Ag6g-4       5Ag6g-3       5Ag6g-2   
  121    5Ag6g-1       5Ag6g0        5Ag6g+1       5Ag6g+2       5Ag6g+3       5Ag6g+4       5Ag1h-5       5Ag1h-4       5Ag1h-3       5Ag1h-2   
  122    5Ag1h-1       5Ag1h0        5Ag1h+1       5Ag1h+2       5Ag1h+3       5Ag1h+4       5Ag1h+5       5Ag2h-5       5Ag2h-4       5Ag2h-3   
  123    5Ag2h-2       5Ag2h-1       5Ag2h0        5Ag2h+1       5Ag2h+2       5Ag2h+3       5Ag2h+4       5Ag2h+5       5Ag3h-5       5Ag3h-4   
  124    5Ag3h-3       5Ag3h-2       5Ag3h-1       5Ag3h0        5Ag3h+1       5Ag3h+2       5Ag3h+3       5Ag3h+4       5Ag3h+5       5Ag1i-6   
  125    5Ag1i-5       5Ag1i-4       5Ag1i-3       5Ag1i-2       5Ag1i-1       5Ag1i0        5Ag1i+1       5Ag1i+2       5Ag1i+3       5Ag1i+4   
  126    5Ag1i+5       5Ag1i+6       5Ag2i-6       5Ag2i-5       5Ag2i-4       5Ag2i-3       5Ag2i-2       5Ag2i-1       5Ag2i0        5Ag2i+1   
  127    5Ag2i+2       5Ag2i+3       5Ag2i+4       5Ag2i+5       5Ag2i+6       6Ag1s         6Ag2s         6Ag3s         6Ag4s         6Ag5s     
  128    6Ag6s         6Ag7s         6Ag8s         6Ag9s         6Ag10s        6Ag11s        6Ag1pz        6Ag1py        6Ag1px        6Ag2pz    
  129    6Ag2py        6Ag2px        6Ag3pz        6Ag3py        6Ag3px        6Ag4pz        6Ag4py        6Ag4px        6Ag5pz        6Ag5py    
  130    6Ag5px        6Ag6pz        6Ag6py        6Ag6px        6Ag7pz        6Ag7py        6Ag7px        6Ag8pz        6Ag8py        6Ag8px    
  131    6Ag9pz        6Ag9py        6Ag9px        6Ag10pz       6Ag10py       6Ag10px       6Ag1d-2       6Ag1d-1       6Ag1d0        6Ag1d+1   
  132    6Ag1d+2       6Ag2d-2       6Ag2d-1       6Ag2d0        6Ag2d+1       6Ag2d+2       6Ag3d-2       6Ag3d-1       6Ag3d0        6Ag3d+1   
  133    6Ag3d+2       6Ag4d-2       6Ag4d-1       6Ag4d0        6Ag4d+1       6Ag4d+2       6Ag5d-2       6Ag5d-1       6Ag5d0        6Ag5d+1   
  134    6Ag5d+2       6Ag6d-2       6Ag6d-1       6Ag6d0        6Ag6d+1       6Ag6d+2       6Ag7d-2       6Ag7d-1       6Ag7d0        6Ag7d+1   
  135    6Ag7d+2       6Ag8d-2       6Ag8d-1       6Ag8d0        6Ag8d+1       6Ag8d+2       6Ag9d-2       6Ag9d-1       6Ag9d0        6Ag9d+1   
  136    6Ag9d+2       6Ag1f-3       6Ag1f-2       6Ag1f-1       6Ag1f0        6Ag1f+1       6Ag1f+2       6Ag1f+3       6Ag2f-3       6Ag2f-2   
  137    6Ag2f-1       6Ag2f0        6Ag2f+1       6Ag2f+2       6Ag2f+3       6Ag3f-3       6Ag3f-2       6Ag3f-1       6Ag3f0        6Ag3f+1   
  138    6Ag3f+2       6Ag3f+3       6Ag4f-3       6Ag4f-2       6Ag4f-1       6Ag4f0        6Ag4f+1       6Ag4f+2       6Ag4f+3       6Ag5f-3   
  139    6Ag5f-2       6Ag5f-1       6Ag5f0        6Ag5f+1       6Ag5f+2       6Ag5f+3       6Ag6f-3       6Ag6f-2       6Ag6f-1       6Ag6f0    
  140    6Ag6f+1       6Ag6f+2       6Ag6f+3       6Ag7f-3       6Ag7f-2       6Ag7f-1       6Ag7f0        6Ag7f+1       6Ag7f+2       6Ag7f+3   
  141    6Ag8f-3       6Ag8f-2       6Ag8f-1       6Ag8f0        6Ag8f+1       6Ag8f+2       6Ag8f+3       6Ag1g-4       6Ag1g-3       6Ag1g-2   
  142    6Ag1g-1       6Ag1g0        6Ag1g+1       6Ag1g+2       6Ag1g+3       6Ag1g+4       6Ag2g-4       6Ag2g-3       6Ag2g-2       6Ag2g-1   
  143    6Ag2g0        6Ag2g+1       6Ag2g+2       6Ag2g+3       6Ag2g+4       6Ag3g-4       6Ag3g-3       6Ag3g-2       6Ag3g-1       6Ag3g0    
  144    6Ag3g+1       6Ag3g+2       6Ag3g+3       6Ag3g+4       6Ag4g-4       6Ag4g-3       6Ag4g-2       6Ag4g-1       6Ag4g0        6Ag4g+1   
  145    6Ag4g+2       6Ag4g+3       6Ag4g+4       6Ag5g-4       6Ag5g-3       6Ag5g-2       6Ag5g-1       6Ag5g0        6Ag5g+1       6Ag5g+2   
  146    6Ag5g+3       6Ag5g+4       6Ag6g-4       6Ag6g-3       6Ag6g-2       6Ag6g-1       6Ag6g0        6Ag6g+1       6Ag6g+2       6Ag6g+3   
  147    6Ag6g+4       6Ag1h-5       6Ag1h-4       6Ag1h-3       6Ag1h-2       6Ag1h-1       6Ag1h0        6Ag1h+1       6Ag1h+2       6Ag1h+3   
  148    6Ag1h+4       6Ag1h+5       6Ag2h-5       6Ag2h-4       6Ag2h-3       6Ag2h-2       6Ag2h-1       6Ag2h0        6Ag2h+1       6Ag2h+2   
  149    6Ag2h+3       6Ag2h+4       6Ag2h+5       6Ag3h-5       6Ag3h-4       6Ag3h-3       6Ag3h-2       6Ag3h-1       6Ag3h0        6Ag3h+1   
  150    6Ag3h+2       6Ag3h+3       6Ag3h+4       6Ag3h+5       6Ag1i-6       6Ag1i-5       6Ag1i-4       6Ag1i-3       6Ag1i-2       6Ag1i-1   
  151    6Ag1i0        6Ag1i+1       6Ag1i+2       6Ag1i+3       6Ag1i+4       6Ag1i+5       6Ag1i+6       6Ag2i-6       6Ag2i-5       6Ag2i-4   
  152    6Ag2i-3       6Ag2i-2       6Ag2i-1       6Ag2i0        6Ag2i+1       6Ag2i+2       6Ag2i+3       6Ag2i+4       6Ag2i+5       6Ag2i+6   
 
 Maximum number of basis functions per shell:   56
 Total number of basis functions:   1530
 
 
 Effective core potentials:
 
   1  Ag mcdhf-ecp-28        
   2  Ag mcdhf-ecp-28        
   3  Ag mcdhf-ecp-28        
   4  Ag mcdhf-ecp-28        
   5  Ag mcdhf-ecp-28        
   6  Ag mcdhf-ecp-28        
 
 Initializing the SAD routines for the initial guess...
 Checking the files required for the initial guess...
 Density files have not been found for the initial guess.
 Generating SCFDENSITIES.Ag.def2-svp.0
 CPU time [min]:     0.117                   Wall time [min]:     0.186
 
 Character table for point group C1:
 
          E  
    A     1
 
 Number of basis functions per irrep:
    A     186
 
 
 Density functional: B2PLYP
 Constructing integration grid for DFT...
 Angular integration grid: adaptive 590-point Lebedev quadrature
 Radial integration grid: Log3 quadrature
 Total number of grid points: 140129      
 CPU time [min]:     1.539                   Wall time [min]:     0.227
 
 Calculation of overlap integrals...
 CPU time [min]:     1.542                   Wall time [min]:     0.227
 
 Calculation of the square root of the overlap matrix...
 Minimum eigenvalue of the overlap matrix: 0.790065E-03
 CPU time [min]:     1.597                   Wall time [min]:     0.230
 
 Calculation of kinetic energy integrals...
 CPU time [min]:     1.598                   Wall time [min]:     0.230
 Calculation of dipole moment integrals...
 CPU time [min]:     1.600                   Wall time [min]:     0.230
 Calculation of nuclear attraction integrals...
 CPU time [min]:     1.602                   Wall time [min]:     0.231
 Calculation of core potential integrals...
 CPU time [min]:     1.819                   Wall time [min]:     0.337
 
 Calculation of prescreening integrals...
 CPU time [min]:     2.141                   Wall time [min]:     0.346
 
 Calculation of two-center Coulomb integrals...
   1% done.
  12% done.
  23% done.
  35% done.
  48% done.
  63% done.
  74% done.
  86% done.
  97% done.
 100% done.
 CPU time [min]:     2.231                   Wall time [min]:     0.349
 
 Cholesky decomposition of the two-center matrix...
 Reciprocal of the condition number:  0.144522E-05
 CPU time [min]:     2.333                   Wall time [min]:     0.352
 
 
 Running small-basis SCF...

 ************************ 2023-02-15 03:30:28 *************************
 Executing scf...

 @scfsetup: integrals calculated directly
            mrcc/integ direct run
 @scfsetup: calculating on full matrices
            not using symmetry adapted basis
 @scfsetup: diis switched on
 @scfsetup: number of steps to extrapolate from  10
 @scfsetup: tolerance in energy deviation    0.100000E-05
            tolerance in density deviation    0.100000E-06
 @scfsetup: maximum number of iterations:  50
 @scfsetup: restricted closed shell hf calc
 @scfsetup: starting scf from superposition of atomic densities
 @scfsetup: occupation set:
            from initial orbitals
 @scfsetup: Parameter-set for SCF acceleration: difficult
 @scfsetup: diis runs from iteration:   2
 @scfsetup: diis runs to iteration:  50
 @scfsetup: diis runs in every iteration
 @scfsetup: diiswatch is disabled                   
 @scfsetup: diis dtol criteria to switch on:      0.0000E+00
           (or the iteration number below is reached)
 @scfsetup: static damping scheme
            iteration step criteria to turn damping off: 3
 @scfsetup: dynamic level shifting
            tolarance in HOMO-LUMO gap:  0.200
            tolarance in density deviation:     0.0000E+00
            iteration step criteria to turn level shifting off: 8
 Allocation of 220.0 Gbytes of memory...
 ======================================================================
 ITERATION STEP   1
 CPU time [min]:     0.033                   Wall time [min]:     0.006
 

 SCF control                  : initial
 Damping factor/level shift   : 0.700/0.200
 DIIS [start/end/frequency]   :   2 / 50 /  1

 Constructing Fock-matrix...
 
 Pipek-Mezey localization...
 Step  Convergence
   1   5.752562428429
   2   4.573972132066
   3   0.474366261480
   4   0.007300727440
   5   0.000090810569
   6   0.000017266583
   7   0.000007262951
   8   0.000007080999
   9   0.000007035908
  10   0.000007039294
  11   0.000007046181
  12   0.000011305967
  13   0.000012740312
  14   0.000012538207
  15   0.000007601963
  16   0.000007236434
  17   0.000011635662
  18   0.000007721896
  19   0.000011051973
  20   0.000007843837
  21   0.000007313392
  22   0.000011712787
  23   0.000012772137
  24   0.000007620312
  25   0.000007254065
  26   0.000007144997
  27   0.000011315103
  28   0.000012824627
  29   0.000012560322
  30   0.000007597443
  31   0.000011016767
  32   0.000012831240
  33   0.000007537228
  34   0.000010964907
  35   0.000007734473
  36   0.000007201509
  37   0.000011505788
  38   0.000012513162
  39   0.000007445932
  40   0.000010802529
  41   0.000007616018
  42   0.000010693144
  43   0.000007582902
  44   0.000007042052
  45   0.000006874781
  46   0.000010812751
  47   0.000012239151
  48   0.000007216609
  49   0.000006850780
  50   0.000010959697
  51   0.000011954452
  52   0.000011731673
  53   0.000007063715
  54   0.000010205166
  55   0.000007182392
  56   0.000010059732
  57   0.000007120779
  58   0.000009951229
  59   0.000007043797
  60   0.000009838026
  61   0.000006962298
  62   0.000009722427
  63   0.000006878624
  64   0.000006369669
  65   0.000006201283
  66   0.000006141348
  67   0.000006094488
  68   0.000006056202
  69   0.000006017572
  70   0.000005979973
  71   0.000009525921
  72   0.000006425372
  73   0.000009073801
  74   0.000006397589
  75   0.000008924115
  76   0.000010379365
  77   0.000009995970
  78   0.000009930694
  79   0.000005946933
  80   0.000008562195
  81   0.000009893851
  82   0.000005769538
  83   0.000005456278
  84   0.000008686539
  85   0.000005713105
  86   0.000005336799
  87   0.000008477312
  88   0.000005556830
  89   0.000007872514
  90   0.000005535526
  91   0.000005113918
  92   0.000008103184
  93   0.000008736210
  94   0.000008523737
  95   0.000005104762
  96   0.000004810227
  97   0.000007642033
  98   0.000008274518
  99   0.000008061698
 100   0.000004826082
 101   0.000006928046
 102   0.000007986040
 103   0.000004645149
 104   0.000006690650
 105   0.000004681415
 106   0.000004321522
 107   0.000004190414
 108   0.000006535776
 109   0.000004452258
 110   0.000006236891
 111   0.000007213931
 112   0.000006916703
 113   0.000006840457
 114   0.000004081954
 115   0.000003839923
 116   0.000003741299
 117   0.000005848582
 118   0.000003974060
 119   0.000005564679
 120   0.000003909856
 121   0.000005421248
 122   0.000003814645
 123   0.000003511113
 124   0.000003399091
 125   0.000003346302
 126   0.000005314258
 127   0.000003544080
 128   0.000004978274
 129   0.000003493690
 130   0.000004841341
 131   0.000003405408
 132   0.000004714582
 133   0.000005451453
 134   0.000003158101
 135   0.000002973744
 136   0.000002896148
 137   0.000004521186
 138   0.000003067701
 139   0.000004287947
 140   0.000003010221
 141   0.000002768440
 142   0.000002677547
 143   0.000002633339
 144   0.000002595954
 145   0.000002562772
 146   0.000004053188
 147   0.000004469540
 148   0.000004317509
 149   0.000002577708
 150   0.000002418625
 151   0.000002352030
 152   0.000002315218
 153   0.000002282377
 154   0.000003594789
 155   0.000002418087
 156   0.000002238472
 157   0.000002168142
 158   0.000002131792
 159   0.000002100433
 160   0.000003305749
 161   0.000003660012
 162   0.000002139640
 163   0.000002010079
 164   0.000003176890
 165   0.000002078625
 166   0.000001930379
 167   0.000003044869
 168   0.000001986312
 169   0.000002793733
 170   0.000003213966
 171   0.000003069296
 172   0.000001833092
 173   0.000001718289
 174   0.000002713568
 175   0.000002921146
 176   0.000002828788
 177   0.000002780412
 178   0.000002728295
 179   0.000001624003
 180   0.000001522126
 181   0.000002403083
 182   0.000002586241
 183   0.000002503762
 184   0.000002460131
 185   0.000001463804
 186   0.000001371780
 187   0.000001332348
 188   0.000001309669
 189   0.000001289494
 190   0.000001270794
 191   0.000001252374
 192   0.000001234408
 193   0.000001945579
 194   0.000002144037
 195   0.000001252981
 196   0.000001175566
 197   0.000001142180
 198   0.000001776828
 199   0.000001979470
 200   0.000001902599
 201   0.000001870198
 202   0.000001112425
 203   0.000001585626
 204   0.000001106548
 205   0.000001528259
 206   0.000001072808
 207   0.000001478758
 208   0.000001704795
 209   0.000000985395
 CPU time [min]:     0.312                   Wall time [min]:     0.014
 
 Constructing local fitting domains...
 Maximum number of atoms in fitting domains:    6
 Average number of atoms in fitting domains:    6.0
 
 First step of Coulomb + first step of exchange...
 Exchange contribution is evaluated for MOs 1 to 57.
   1% done.
  13% done.
  25% done.
  40% done.
  55% done.
  70% done.
  83% done.
 100% done.
 CPU time [min]:     1.260                   Wall time [min]:     0.042
 
 Fitting and assembly step of exchange...
 CPU time [min]:     1.293                   Wall time [min]:     0.044
 
 Second step of Coulomb...
   1% done.
  13% done.
  25% done.
  40% done.
  55% done.
  70% done.
  83% done.
 100% done.
 CPU time [min]:     1.443                   Wall time [min]:     0.048
 
 Calculating the exchange-correlation matrix...
                   0.4700*B88 [au]:    -39.574009302304
                   0.7300*LYP [au]:     -3.208704459040
 Exchange-correlation energy  [au]:    -42.782713761344
 CPU time [min]:     2.063                   Wall time [min]:     0.082
 
 Coulomb energy + HF exchange [au]:   1667.527809583890
 Gradient norm:      2.0988E+00
 RMS of [F,P]:                                         0.02344326627156
 RMS of difference density:                            0.00870680582147
 Gap [au]:  0.08726558
 ALPHA OCC:  57
 BETA  OCC:  57
 
 ***KOHN-SHAM ENERGY IN STEP   1 IS          -877.5948673233078807 [AU]
 ======================================================================
 ITERATION STEP   2
 CPU time [min]:     2.084                   Wall time [min]:     0.083
 

 SCF control                  : diis+damping
 Damping factor/level shift   : 0.700/0.200
 DIIS [start/end/frequency]   :   2 / 50 /  1

 Constructing Fock-matrix...
 
 Pipek-Mezey localization...
 Step  Convergence
   1  15.586470374999
   2   4.206498618695
   3   0.104375037711
   4   0.000045075828
   5   0.000004461678
   6   0.000002438753
   7   0.000002295612
   8   0.000003609882
   9   0.000003875520
  10   0.000002273034
  11   0.000002128445
  12   0.000003343709
  13   0.000002182395
  14   0.000003055729
  15   0.000003494167
  16   0.000002021032
  17   0.000002883180
  18   0.000003284351
  19   0.000003126522
  20   0.000003064678
  21   0.000001821311
  22   0.000002588375
  23   0.000002949942
  24   0.000001707111
  25   0.000002433688
  26   0.000002771770
  27   0.000002637678
  28   0.000002584569
  29   0.000001535742
  30   0.000001435320
  31   0.000002252275
  32   0.000001469236
  33   0.000002054684
  34   0.000002347563
  35   0.000002230808
  36   0.000002185752
  37   0.000002133919
  38   0.000001268282
  39   0.000001800468
  40   0.000002050892
  41   0.000001950230
  42   0.000001909824
  43   0.000001863892
  44   0.000001819877
  45   0.000001081383
  46   0.000001534887
  47   0.000001067613
  48   0.000001469061
  49   0.000001682307
  50   0.000001596566
  51   0.000000951876
 CPU time [min]:     2.170                   Wall time [min]:     0.085
 
 Constructing local fitting domains...
 Maximum number of atoms in fitting domains:    6
 Average number of atoms in fitting domains:    6.0
 
 First step of Coulomb + first step of exchange...
 Exchange contribution is evaluated for MOs 1 to 57.
   1% done.
  13% done.
  25% done.
  40% done.
  55% done.
  70% done.
  83% done.
 100% done.
 CPU time [min]:     2.453                   Wall time [min]:     0.093
 
 Fitting and assembly step of exchange...
 CPU time [min]:     2.483                   Wall time [min]:     0.094
 
 Second step of Coulomb...
   1% done.
  13% done.
  25% done.
  40% done.
  55% done.
  70% done.
  83% done.
 100% done.
 CPU time [min]:     2.557                   Wall time [min]:     0.096
 
 Calculating the exchange-correlation matrix...
                   0.4700*B88 [au]:    -38.693728393676
                   0.7300*LYP [au]:     -3.192091050721
 Exchange-correlation energy  [au]:    -41.885819444397
 CPU time [min]:     3.109                   Wall time [min]:     0.126
 
 Coulomb energy + HF exchange [au]:   1651.995933556126
 Gradient norm:      1.5953E-01
 DIIS is running in this iteration step.
 RMS of [F,P]:                                         0.01545906740364
 RMS of difference density:                            0.00371909723386
 Gap [au]:  0.12488464
 ALPHA OCC:  57
 BETA  OCC:  57
 
 ***KOHN-SHAM ENERGY IN STEP   2 IS          -878.8980474309769306 [AU]
 
 Step comparison  Energy Drift [au]  DIIS error drift  Gradient drift
        1            1.3032E+00         7.9842E-03       1.9393E+00
        2            8.7890E+02         1.0000E-07       1.9393E+00
 ======================================================================
 ITERATION STEP   3
 CPU time [min]:     3.126                   Wall time [min]:     0.127
 

 SCF control                  : diis+damping
 Damping factor/level shift   : 0.700/0.200
 DIIS [start/end/frequency]   :   2 / 50 /  1

 Constructing Fock-matrix...
 
 Pipek-Mezey localization...
 Step  Convergence
   1  14.387135449033
   2   6.259234692539
   3   0.148196267811
   4   0.000175363820
   5   0.000001486716
   6   0.000001368207
   7   0.000002147738
   8   0.000001415485
   9   0.000001972557
  10   0.000001375884
  11   0.000001890006
  12   0.000002160385
  13   0.000002048724
  14   0.000001221827
  15   0.000001731443
  16   0.000001968187
  17   0.000001869210
  18   0.000001114452
  19   0.000001040069
  20   0.000001005929
  21   0.000001552741
  22   0.000001716569
  23   0.000001640911
  24   0.000001603480
  25   0.000001562985
  26   0.000000929105
 CPU time [min]:     3.177                   Wall time [min]:     0.128
 
 Constructing local fitting domains...
 Local fitting domains are unchanged.
 
 First step of Coulomb + first step of exchange...
 Exchange contribution is evaluated for MOs 1 to 57.
   1% done.
  13% done.
  25% done.
  40% done.
  55% done.
  70% done.
  83% done.
 100% done.
 CPU time [min]:     3.459                   Wall time [min]:     0.136
 
 Fitting and assembly step of exchange...
 CPU time [min]:     3.489                   Wall time [min]:     0.137
 
 Second step of Coulomb...
   1% done.
  13% done.
  25% done.
  40% done.
  55% done.
  70% done.
  83% done.
 100% done.
 CPU time [min]:     3.563                   Wall time [min]:     0.139
 
 Calculating the exchange-correlation matrix...
                   0.4700*B88 [au]:    -38.325763332755
                   0.7300*LYP [au]:     -3.184778993596
 Exchange-correlation energy  [au]:    -41.510542326351
 CPU time [min]:     4.117                   Wall time [min]:     0.169
 
 Coulomb energy + HF exchange [au]:   1645.645973580616
 Gradient norm:      7.4643E-02
 DIIS is running in this iteration step.
 RMS of [F,P]:                                         0.01088733299167
 RMS of difference density:                            0.00280777045168
 Gap [au]:  0.14930298
 ALPHA OCC:  57
 BETA  OCC:  57
 
 ***KOHN-SHAM ENERGY IN STEP   3 IS          -879.2425650520244744 [AU]
 
 Step comparison  Energy Drift [au]  DIIS error drift  Gradient drift
        2            3.4452E-01         4.5717E-03       8.4882E-02
 ======================================================================
 ITERATION STEP   4
 CPU time [min]:     4.132                   Wall time [min]:     0.170
 

 SCF control                  : diis
 Damping factor/level shift   : 0.000/0.200
 DIIS [start/end/frequency]   :   2 / 50 /  1

 Constructing Fock-matrix...
 
 Pipek-Mezey localization...
 Step  Convergence
   1  13.771118967769
   2   5.562516232862
   3   0.510633025470
   4   0.001468168174
   5   0.000002361506
   6   0.000002292189
   7   0.000002246331
   8   0.000002201889
   9   0.000002158312
  10   0.000003359576
  11   0.000002243370
  12   0.000003110962
  13   0.000003531388
  14   0.000003346684
  15   0.000003267137
  16   0.000001944810
  17   0.000001814425
  18   0.000002826290
  19   0.000003009470
  20   0.000001768299
  21   0.000002503701
  22   0.000002829574
  23   0.000002682889
  24   0.000001602467
  25   0.000002263721
  26   0.000001571185
  27   0.000002154615
  28   0.000001503615
  29   0.000002057930
  30   0.000002338896
  31   0.000002213036
  32   0.000001321969
  33   0.000001866599
  34   0.000001295409
  35   0.000001184796
  36   0.000001837529
  37   0.000001193192
  38   0.000001661335
  39   0.000001882023
  40   0.000001090776
  41   0.000001545525
  42   0.000001745217
  43   0.000001653470
  44   0.000001612268
  45   0.000001567487
  46   0.000001524299
  47   0.000000907481
 CPU time [min]:     4.208                   Wall time [min]:     0.172
 
 Constructing local fitting domains...
 Local fitting domains are unchanged.
 
 First step of Coulomb + first step of exchange...
 Exchange contribution is evaluated for MOs 1 to 57.
   1% done.
  13% done.
  25% done.
  40% done.
  55% done.
  70% done.
  83% done.
 100% done.
 CPU time [min]:     4.490                   Wall time [min]:     0.180
 
 Fitting and assembly step of exchange...
 CPU time [min]:     4.521                   Wall time [min]:     0.181
 
 Second step of Coulomb...
   1% done.
  13% done.
  25% done.
  40% done.
  55% done.
  70% done.
  83% done.
 100% done.
 CPU time [min]:     4.595                   Wall time [min]:     0.183
 
 Calculating the exchange-correlation matrix...
                   0.4700*B88 [au]:    -38.056698122876
                   0.7300*LYP [au]:     -3.182455091973
 Exchange-correlation energy  [au]:    -41.239153214849
 CPU time [min]:     5.148                   Wall time [min]:     0.213
 
 Coulomb energy + HF exchange [au]:   1645.254951336397
 Gradient norm:      1.3924E-01
 DIIS is running in this iteration step.
 RMS of [F,P]:                                         0.00848362903022
 RMS of difference density:                            0.01008714486324
 Gap [au]:  0.15579775
 ALPHA OCC:  57
 BETA  OCC:  57
 
 ***KOHN-SHAM ENERGY IN STEP   4 IS          -879.0122484457574501 [AU]
 
 Step comparison  Energy Drift [au]  DIIS error drift  Gradient drift
        3           -2.3032E-01         2.4037E-03      -6.4602E-02
 Warning! The energy goes uphill (with respect to previous step).
 Warning! The gradient goes uphill (with respect to previous step).
 Warning! The gradient goes uphill (with respect to step   3 ).
 ======================================================================
 ITERATION STEP   5
 CPU time [min]:     5.159                   Wall time [min]:     0.213
 

 SCF control                  : diis
 Damping factor/level shift   : 0.000/0.200
 DIIS [start/end/frequency]   :   2 / 50 /  1

 Constructing Fock-matrix...
 
 Pipek-Mezey localization...
 Step  Convergence
   1  14.927699089359
   2   6.495305660227
   3   0.098463575120
   4   0.000039379321
   5   0.000000412361
 CPU time [min]:     5.184                   Wall time [min]:     0.214
 
 Constructing local fitting domains...
 Local fitting domains are unchanged.
 
 First step of Coulomb + first step of exchange...
 Exchange contribution is evaluated for MOs 1 to 57.
   1% done.
  13% done.
  25% done.
  40% done.
  55% done.
  70% done.
  83% done.
 100% done.
 CPU time [min]:     5.467                   Wall time [min]:     0.222
 
 Fitting and assembly step of exchange...
 CPU time [min]:     5.496                   Wall time [min]:     0.223
 
 Second step of Coulomb...
   1% done.
  13% done.
  25% done.
  40% done.
  55% done.
  70% done.
  83% done.
 100% done.
 CPU time [min]:     5.571                   Wall time [min]:     0.225
 
 Calculating the exchange-correlation matrix...
                   0.4700*B88 [au]:    -37.741770257732
                   0.7300*LYP [au]:     -3.176455519069
 Exchange-correlation energy  [au]:    -40.918225776801
 CPU time [min]:     6.124                   Wall time [min]:     0.255
 
 Coulomb energy + HF exchange [au]:   1638.474079541478
 Gradient norm:      3.7997E-02
 DIIS is running in this iteration step.
 RMS of [F,P]:                                         0.00080905596007
 RMS of difference density:                            0.00232584704701
 Gap [au]:  0.15028162
 ALPHA OCC:  57
 BETA  OCC:  57
 
 ***KOHN-SHAM ENERGY IN STEP   5 IS          -879.5666487599869470 [AU]
 
 Step comparison  Energy Drift [au]  DIIS error drift  Gradient drift
        4            5.5440E-01         7.6746E-03       1.0125E-01
 ======================================================================
 ITERATION STEP   6
 CPU time [min]:     6.135                   Wall time [min]:     0.256
 

 SCF control                  : diis
 Damping factor/level shift   : 0.000/0.200
 DIIS [start/end/frequency]   :   2 / 50 /  1

 Constructing Fock-matrix...
 
 Pipek-Mezey localization...
 Step  Convergence
   1  20.388007797337
   2   5.974145025064
   3   1.031478671191
   4   0.004082168796
   5   0.000001127532
   6   0.000000545160
 CPU time [min]:     6.161                   Wall time [min]:     0.256
 
 Constructing local fitting domains...
 Local fitting domains are unchanged.
 
 First step of Coulomb + first step of exchange...
 Exchange contribution is evaluated for MOs 1 to 57.
   1% done.
  13% done.
  25% done.
  40% done.
  55% done.
  70% done.
  83% done.
 100% done.
 CPU time [min]:     6.444                   Wall time [min]:     0.264
 
 Fitting and assembly step of exchange...
 CPU time [min]:     6.474                   Wall time [min]:     0.265
 
 Second step of Coulomb...
   1% done.
  13% done.
  25% done.
  40% done.
  55% done.
  70% done.
  83% done.
 100% done.
 CPU time [min]:     6.548                   Wall time [min]:     0.267
 
 Calculating the exchange-correlation matrix...
                   0.4700*B88 [au]:    -37.763318687915
                   0.7300*LYP [au]:     -3.177117170623
 Exchange-correlation energy  [au]:    -40.940435858538
 CPU time [min]:     7.101                   Wall time [min]:     0.297
 
 Coulomb energy + HF exchange [au]:   1638.746916076972
 Gradient norm:      1.6587E-02
 DIIS is running in this iteration step.
 RMS of [F,P]:                                         0.00033630059092
 RMS of difference density:                            0.00078541562964
 Gap [au]:  0.15089178
 ALPHA OCC:  57
 BETA  OCC:  57
 
 ***KOHN-SHAM ENERGY IN STEP   6 IS          -879.5700294031144040 [AU]
 
 Step comparison  Energy Drift [au]  DIIS error drift  Gradient drift
        5            3.3806E-03         4.7276E-04       2.1410E-02
 ======================================================================
 ITERATION STEP   7
 CPU time [min]:     7.112                   Wall time [min]:     0.298
 

 SCF control                  : diis
 Damping factor/level shift   : 0.000/0.200
 DIIS [start/end/frequency]   :   2 / 50 /  1

 Constructing Fock-matrix...
 
 Pipek-Mezey localization...
 Step  Convergence
   1  20.281654787860
   2   8.884918255305
   3   2.749474414992
   4   1.008963593598
   5   0.243636297720
   6   0.214315417739
   7   0.017396491487
   8   0.002812919972
   9   0.000585168853
  10   0.000133131125
  11   0.000031426913
  12   0.000007599719
  13   0.000001826887
  14   0.000000443050
  15   0.000000107538
  16   0.000000027259
 CPU time [min]:     7.150                   Wall time [min]:     0.299
 
 Constructing local fitting domains...
 Local fitting domains are unchanged.
 
 First step of Coulomb + first step of exchange...
 Exchange contribution is evaluated for MOs 1 to 57.
   1% done.
  13% done.
  25% done.
  40% done.
  55% done.
  70% done.
  83% done.
 100% done.
 CPU time [min]:     7.433                   Wall time [min]:     0.307
 
 Fitting and assembly step of exchange...
 CPU time [min]:     7.463                   Wall time [min]:     0.308
 
 Second step of Coulomb...
   1% done.
  13% done.
  25% done.
  40% done.
  55% done.
  70% done.
  83% done.
 100% done.
 CPU time [min]:     7.537                   Wall time [min]:     0.310
 
 Calculating the exchange-correlation matrix...
                   0.4700*B88 [au]:    -37.777508120376
                   0.7300*LYP [au]:     -3.177643074185
 Exchange-correlation energy  [au]:    -40.955151194561
 CPU time [min]:     8.091                   Wall time [min]:     0.340
 
 Coulomb energy + HF exchange [au]:   1639.120765923784
 Gradient norm:      8.0059E-03
 DIIS is running in this iteration step.
 RMS of [F,P]:                                         0.00018239793335
 RMS of difference density:                            0.00031935818295
 Gap [au]:  0.15011133
 ALPHA OCC:  57
 BETA  OCC:  57
 
 ***KOHN-SHAM ENERGY IN STEP   7 IS          -879.5706275822913085 [AU]
 
 Step comparison  Energy Drift [au]  DIIS error drift  Gradient drift
        6            5.9818E-04         1.5390E-04       8.5807E-03
 ======================================================================
 ITERATION STEP   8
 CPU time [min]:     8.102                   Wall time [min]:     0.340
 

 SCF control                  : diis
 Damping factor/level shift   : 0.000/0.200
 DIIS [start/end/frequency]   :   2 / 50 /  1

 Constructing Fock-matrix...
 
 Pipek-Mezey localization...
 Step  Convergence
   1  19.786780486703
   2  11.486943626094
   3  18.971661722597
   4   7.752831928986
   5   1.730711499661
   6   0.136139426843
   7   0.016870342133
   8   0.004757756742
   9   0.001277442570
  10   0.000350489112
  11   0.000091821218
  12   0.000024309279
  13   0.000006898847
  14   0.000002355840
  15   0.000001223627
  16   0.000000845890
  17   0.000000784742
  18   0.000000670269
  19   0.000000629357
  20   0.000000600794
  21   0.000000577049
  22   0.000000558370
  23   0.000000636082
  24   0.000000644753
  25   0.000000681482
  26   0.000000611027
  27   0.000000611694
  28   0.000000614882
  29   0.000000502659
  30   0.000000595577
  31   0.000000567112
  32   0.000000572163
  33   0.000000594434
  34   0.000000513237
  35   0.000000503365
  36   0.000000429450
  37   0.000000455745
  38   0.000000447844
  39   0.000000462458
  40   0.000000475148
  41   0.000000410400
  42   0.000000448915
  43   0.000000408973
  44   0.000000408398
  45   0.000000415502
  46   0.000000409185
  47   0.000000400965
  48   0.000000391587
  49   0.000000334188
  50   0.000000357317
  51   0.000000277510
  52   0.000000272102
  53   0.000000277176
  54   0.000000266549
  55   0.000000237818
  56   0.000000270924
  57   0.000000212737
  58   0.000000212487
  59   0.000000220691
  60   0.000000180594
  61   0.000000215026
  62   0.000000204631
  63   0.000000206524
  64   0.000000214627
  65   0.000000213490
  66   0.000000210757
  67   0.000000206826
  68   0.000000202103
  69   0.000000196720
  70   0.000000191357
  71   0.000000163058
  72   0.000000156579
  73   0.000000131719
  74   0.000000120433
  75   0.000000111105
  76   0.000000104290
  77   0.000000115247
  78   0.000000114807
  79   0.000000102224
  80   0.000000105999
  81   0.000000107204
  82   0.000000104108
  83   0.000000108858
  84   0.000000111394
  85   0.000000096293
  86   0.000000105423
  87   0.000000096207
  88   0.000000095780
  89   0.000000085055
  90   0.000000092736
  91   0.000000084645
  92   0.000000083873
  93   0.000000074631
  94   0.000000081373
  95   0.000000063436
  96   0.000000070561
  97   0.000000066891
  98   0.000000057491
  99   0.000000066251
 100   0.000000061223
 101   0.000000061096
 102   0.000000062809
 103   0.000000054050
 104   0.000000052772
 105   0.000000044779
 106   0.000000041274
 107   0.000000044718
 108   0.000000037131
 109   0.000000043994
 110   0.000000042160
 111   0.000000042608
 112   0.000000044363
 113   0.000000044144
 114   0.000000043511
 115   0.000000042933
 116   0.000000036718
 117   0.000000039444
 118   0.000000030683
 119   0.000000033794
 120   0.000000031870
 121   0.000000031741
 122   0.000000032642
 123   0.000000032256
 124   0.000000031648
 125   0.000000030936
 126   0.000000029838
 127   0.000000029433
 128   0.000000025002
 129   0.000000026612
 130   0.000000023950
 131   0.000000023499
 132   0.000000023812
 133   0.000000023301
 134   0.000000019923
 135   0.000000021318
 136   0.000000019262
 137   0.000000018976
 138   0.000000016734
 139   0.000000018178
 140   0.000000014183
 141   0.000000013982
 142   0.000000014333
 143   0.000000013831
 144   0.000000012372
 145   0.000000014096
 146   0.000000013034
 147   0.000000011186
 148   0.000000012921
 149   0.000000011892
 150   0.000000010230
 151   0.000000010460
 152   0.000000010434
 153   0.000000008509
 154   0.000000010005
 155   0.000000009502
 156   0.000000009551
 157   0.000000009902
 158   0.000000009829
 159   0.000000009693
 160   0.000000009508
 161   0.000000008129
 162   0.000000008730
 163   0.000000006787
 164   0.000000006663
 165   0.000000006800
 166   0.000000006548
 167   0.000000006797
 168   0.000000006927
 169   0.000000006852
 170   0.000000006747
 171   0.000000006596
 172   0.000000006430
 173   0.000000005496
 174   0.000000005862
 175   0.000000005286
 176   0.000000004508
 177   0.000000005088
 178   0.000000003970
 179   0.000000004415
 180   0.000000003558
 181   0.000000003555
 182   0.000000003709
 183   0.000000003609
 184   0.000000003233
 185   0.000000003305
 186   0.000000003321
 187   0.000000002714
 188   0.000000002840
 189   0.000000002518
 190   0.000000002376
 191   0.000000002638
 192   0.000000002201
 193   0.000000002332
 194   0.000000002095
 195   0.000000001986
 196   0.000000002237
 197   0.000000001870
 198   0.000000002267
 199   0.000000002193
 200   0.000000001898
 201   0.000000002247
 202   0.000000002092
 203   0.000000002114
 204   0.000000002177
 205   0.000000001881
 206   0.000000002058
 207   0.000000001878
 208   0.000000001604
 209   0.000000001639
 210   0.000000001623
 211   0.000000001557
 212   0.000000001386
 213   0.000000001410
 214   0.000000001213
 215   0.000000001124
 216   0.000000001234
 217   0.000000001027
 218   0.000000001228
 219   0.000000001181
 220   0.000000001195
 221   0.000000001077
 222   0.000000001067
 223   0.000000000917
 224   0.000000000850
 225   0.000000000933
 226   0.000000000778
 227   0.000000000930
 228   0.000000000749
 229   0.000000000765
 230   0.000000000689
 231   0.000000000651
 232   0.000000000731
 233   0.000000000732
 234   0.000000000655
 235   0.000000000769
 236   0.000000000608
 237   0.000000000694
 238   0.000000000667
 239   0.000000000577
 240   0.000000000676
 241   0.000000000531
 242   0.000000000533
 243   0.000000000477
 244   0.000000000519
 245   0.000000000434
 246   0.000000000454
 247   0.000000000408
 248   0.000000000386
 249   0.000000000434
 250   0.000000000363
 251   0.000000000386
 252   0.000000000409
 253   0.000000000403
 254   0.000000000426
 255   0.000000000379
 256   0.000000000376
 257   0.000000000323
 258   0.000000000300
 259   0.000000000330
 260   0.000000000328
 261   0.000000000292
 262   0.000000000303
 263   0.000000000306
 264   0.000000000250
 265   0.000000000263
 266   0.000000000274
 267   0.000000000267
 268   0.000000000240
 269   0.000000000246
 270   0.000000000248
 271   0.000000000240
 272   0.000000000250
 273   0.000000000222
 274   0.000000000245
 275   0.000000000192
 276   0.000000000191
 277   0.000000000170
 278   0.000000000184
 279   0.000000000183
 280   0.000000000190
 281   0.000000000197
 282   0.000000000196
 283   0.000000000169
 284   0.000000000165
 285   0.000000000162
 286   0.000000000131
 287   0.000000000136
 288   0.000000000139
 289   0.000000000135
 290   0.000000000121
 291   0.000000000138
 292   0.000000000128
 293   0.000000000128
 294   0.000000000115
 295   0.000000000126
 296   0.000000000115
 297   0.000000000115
 298   0.000000000117
 299   0.000000000116
 300   0.000000000099
 CPU time [min]:     8.490                   Wall time [min]:     0.351
 
 Constructing local fitting domains...
 Local fitting domains are unchanged.
 
 First step of Coulomb + first step of exchange...
 Exchange contribution is evaluated for MOs 1 to 57.
   1% done.
  13% done.
  25% done.
  40% done.
  55% done.
  70% done.
  83% done.
 100% done.
 CPU time [min]:     8.772                   Wall time [min]:     0.359
 
 Fitting and assembly step of exchange...
 CPU time [min]:     8.802                   Wall time [min]:     0.360
 
 Second step of Coulomb...
   1% done.
  13% done.
  25% done.
  40% done.
  55% done.
  70% done.
  83% done.
 100% done.
 CPU time [min]:     8.877                   Wall time [min]:     0.362
 
 Calculating the exchange-correlation matrix...
                   0.4700*B88 [au]:    -37.783921171539
                   0.7300*LYP [au]:     -3.177793597607
 Exchange-correlation energy  [au]:    -40.961714769146
 CPU time [min]:     9.429                   Wall time [min]:     0.392
 
 Coulomb energy + HF exchange [au]:   1639.212355418247
 Gradient norm:      2.5065E-03
 DIIS is running in this iteration step.
 RMS of [F,P]:                                         0.00006776571560
 RMS of difference density:                            0.00013429699231
 Gap [au]:  0.14993946
 ALPHA OCC:  57
 BETA  OCC:  57
 
 ***KOHN-SHAM ENERGY IN STEP   8 IS          -879.5708180205947428 [AU]
 
 Step comparison  Energy Drift [au]  DIIS error drift  Gradient drift
        7            1.9044E-04         1.1463E-04       5.4994E-03
 ======================================================================
 ITERATION STEP   9
 CPU time [min]:     9.439                   Wall time [min]:     0.393
 

 SCF control                  : diis
 Damping factor/level shift   : 0.000/0.000
 DIIS [start/end/frequency]   :   2 / 50 /  1

 Constructing Fock-matrix...
 
 Pipek-Mezey localization...
 Step  Convergence
   1  21.956543815889
   2  10.113921139156
   3  13.998778306988
   4   6.677083575568
   5   1.068639593390
   6   0.083249511358
   7   0.011717381771
   8   0.002083719738
   9   0.000762287752
  10   0.000292731814
  11   0.000134819031
  12   0.000069144454
  13   0.000039155031
  14   0.000020968453
  15   0.000012373256
  16   0.000007505520
  17   0.000004553262
  18   0.000002811887
  19   0.000001816620
  20   0.000001211470
  21   0.000000834990
  22   0.000000604298
  23   0.000000444007
  24   0.000000327449
  25   0.000000272737
  26   0.000000217769
  27   0.000000182134
  28   0.000000151660
  29   0.000000134105
  30   0.000000111944
  31   0.000000095981
  32   0.000000097313
  33   0.000000079173
  34   0.000000078516
  35   0.000000070976
  36   0.000000075096
  37   0.000000074348
  38   0.000000063914
  39   0.000000066198
  40   0.000000068934
  41   0.000000055711
  42   0.000000057064
  43   0.000000060076
  44   0.000000059305
  45   0.000000060448
  46   0.000000053600
  47   0.000000053321
  48   0.000000054704
  49   0.000000051924
  50   0.000000052612
  51   0.000000053751
  52   0.000000053936
  53   0.000000052646
  54   0.000000051290
  55   0.000000044048
  56   0.000000047180
  57   0.000000043872
  58   0.000000041867
  59   0.000000042273
  60   0.000000041996
  61   0.000000035355
  62   0.000000038034
  63   0.000000030602
  64   0.000000032456
  65   0.000000026411
  66   0.000000029445
  67   0.000000028595
  68   0.000000023823
  69   0.000000027632
  70   0.000000022506
  71   0.000000022452
  72   0.000000019683
  73   0.000000021317
  74   0.000000017762
  75   0.000000020604
  76   0.000000020084
  77   0.000000020305
  78   0.000000018176
  79   0.000000020292
  80   0.000000016431
  81   0.000000015932
  82   0.000000014562
  83   0.000000015562
  84   0.000000015474
  85   0.000000015666
  86   0.000000014105
  87   0.000000015700
  88   0.000000014792
  89   0.000000012760
  90   0.000000012444
  91   0.000000012939
  92   0.000000012338
  93   0.000000012517
  94   0.000000011077
  95   0.000000012272
  96   0.000000011567
  97   0.000000011139
  98   0.000000011391
  99   0.000000011269
 100   0.000000011073
 101   0.000000009475
 102   0.000000010210
 103   0.000000008168
 104   0.000000008692
 105   0.000000008207
 106   0.000000008420
 107   0.000000008238
 108   0.000000008184
 109   0.000000008058
 110   0.000000006910
 111   0.000000007423
 112   0.000000006908
 113   0.000000006575
 114   0.000000006668
 115   0.000000005732
 116   0.000000006185
 117   0.000000004980
 118   0.000000004719
 119   0.000000004293
 120   0.000000004525
 121   0.000000004459
 122   0.000000004514
 123   0.000000004010
 124   0.000000003988
 125   0.000000003548
 126   0.000000003728
 127   0.000000003675
 128   0.000000003699
 129   0.000000003299
 130   0.000000003676
 131   0.000000002983
 132   0.000000002870
 133   0.000000003048
 134   0.000000002935
 135   0.000000002563
 136   0.000000002947
 137   0.000000002814
 138   0.000000002351
 139   0.000000002403
 140   0.000000002154
 141   0.000000002269
 142   0.000000002242
 143   0.000000002262
 144   0.000000002019
 145   0.000000002009
 146   0.000000002062
 147   0.000000001663
 148   0.000000001688
 149   0.000000001793
 150   0.000000001727
 151   0.000000001511
 152   0.000000001744
 153   0.000000001425
 154   0.000000001415
 155   0.000000001467
 156   0.000000001195
 157   0.000000001228
 158   0.000000001323
 159   0.000000001298
 160   0.000000001112
 161   0.000000001296
 162   0.000000001057
 163   0.000000001162
 164   0.000000001147
 165   0.000000000958
 166   0.000000001117
 167   0.000000001056
 168   0.000000001066
 169   0.000000001060
 170   0.000000000921
 171   0.000000000903
 172   0.000000000914
 173   0.000000000743
 174   0.000000000838
 175   0.000000000805
 176   0.000000000789
 177   0.000000000810
 178   0.000000000707
 179   0.000000000765
 180   0.000000000620
 181   0.000000000593
 182   0.000000000627
 183   0.000000000507
 184   0.000000000517
 185   0.000000000473
 186   0.000000000438
 187   0.000000000486
 188   0.000000000405
 189   0.000000000418
 190   0.000000000456
 191   0.000000000371
 192   0.000000000439
 193   0.000000000429
 194   0.000000000442
 195   0.000000000381
 196   0.000000000382
 197   0.000000000340
 198   0.000000000363
 199   0.000000000353
 200   0.000000000312
 201   0.000000000313
 202   0.000000000324
 203   0.000000000267
 204   0.000000000308
 205   0.000000000302
 206   0.000000000296
 207   0.000000000265
 208   0.000000000296
 209   0.000000000240
 210   0.000000000259
 211   0.000000000254
 212   0.000000000247
 213   0.000000000221
 214   0.000000000246
 215   0.000000000230
 216   0.000000000191
 217   0.000000000219
 218   0.000000000207
 219   0.000000000200
 220   0.000000000178
 221   0.000000000175
 222   0.000000000155
 223   0.000000000140
 224   0.000000000152
 225   0.000000000150
 226   0.000000000131
 227   0.000000000134
 228   0.000000000140
 229   0.000000000114
 230   0.000000000115
 231   0.000000000124
 232   0.000000000101
 233   0.000000000104
 234   0.000000000096
 235   0.000000000103
 236   0.000000000104
 237   0.000000000105
 238   0.000000000094
 239   0.000000000106
 240   0.000000000086
 241   0.000000000094
 242   0.000000000092
 243   0.000000000090
 244   0.000000000093
 245   0.000000000092
 246   0.000000000080
 247   0.000000000086
 248   0.000000000069
 249   0.000000000066
 250   0.000000000059
 251   0.000000000056
 252   0.000000000060
 253   0.000000000051
 254   0.000000000053
 255   0.000000000046
 256   0.000000000045
 257   0.000000000050
 258   0.000000000050
 259   0.000000000052
 260   0.000000000046
 261   0.000000000052
 262   0.000000000049
 263   0.000000000041
 264   0.000000000042
 265   0.000000000038
 266   0.000000000040
 267   0.000000000039
 268   0.000000000040
 269   0.000000000041
 270   0.000000000041
 271   0.000000000035
 272   0.000000000038
 273   0.000000000036
 274   0.000000000031
 275   0.000000000033
 276   0.000000000031
 277   0.000000000031
 278   0.000000000031
 279   0.000000000027
 280   0.000000000029
 281   0.000000000027
 282   0.000000000026
 283   0.000000000027
 284   0.000000000023
 285   0.000000000022
 286   0.000000000020
 287   0.000000000020
 288   0.000000000017
 289   0.000000000017
 290   0.000000000018
 291   0.000000000017
 292   0.000000000018
 293   0.000000000018
 294   0.000000000016
 295   0.000000000017
 296   0.000000000016
 297   0.000000000016
 298   0.000000000016
 299   0.000000000016
 300   0.000000000014
 CPU time [min]:     9.824                   Wall time [min]:     0.403
 
 Constructing local fitting domains...
 Local fitting domains are unchanged.
 
 First step of Coulomb + first step of exchange...
 Exchange contribution is evaluated for MOs 1 to 57.
   1% done.
  13% done.
  25% done.
  40% done.
  55% done.
  70% done.
  83% done.
 100% done.
 CPU time [min]:    10.108                   Wall time [min]:     0.411
 
 Fitting and assembly step of exchange...
 CPU time [min]:    10.138                   Wall time [min]:     0.412
 
 Second step of Coulomb...
   1% done.
  13% done.
  25% done.
  40% done.
  55% done.
  70% done.
  83% done.
 100% done.
 CPU time [min]:    10.212                   Wall time [min]:     0.414
 
 Calculating the exchange-correlation matrix...
                   0.4700*B88 [au]:    -37.786777484880
                   0.7300*LYP [au]:     -3.177828996138
 Exchange-correlation energy  [au]:    -40.964606481018
 CPU time [min]:    10.781                   Wall time [min]:     0.445
 
 Coulomb energy + HF exchange [au]:   1639.223619860185
 Gradient norm:      1.0167E-03
 DIIS is running in this iteration step.
 RMS of [F,P]:                                         0.00002913678154
 RMS of difference density:                            0.00007064550440
 Gap [au]:  0.14992156
 ALPHA OCC:  57
 BETA  OCC:  57
 
 ***KOHN-SHAM ENERGY IN STEP   9 IS          -879.5708580681521198 [AU]
 
 Step comparison  Energy Drift [au]  DIIS error drift  Gradient drift
        8            4.0048E-05         3.8629E-05       1.4897E-03
 ======================================================================
 ITERATION STEP  10
 CPU time [min]:    10.792                   Wall time [min]:     0.445
 

 SCF control                  : diis
 Damping factor/level shift   : 0.000/0.000
 DIIS [start/end/frequency]   :   2 / 50 /  1

 Constructing Fock-matrix...
 
 Pipek-Mezey localization...
 Step  Convergence
   1  19.230913651906
   2   9.711229335941
   3  14.481283868779
   4   5.982041423836
   5   2.920404711485
   6   0.302103597090
   7   0.009369948805
   8   0.001876186415
   9   0.000588665632
  10   0.000191426147
  11   0.000081215609
  12   0.000041097702
  13   0.000022807964
  14   0.000013450565
  15   0.000008025510
  16   0.000005012942
  17   0.000003056158
  18   0.000001980241
  19   0.000001294313
  20   0.000000884872
  21   0.000000623854
  22   0.000000470350
  23   0.000000366800
  24   0.000000303987
  25   0.000000269661
  26   0.000000219041
  27   0.000000212859
  28   0.000000166212
  29   0.000000150059
  30   0.000000150490
  31   0.000000119145
  32   0.000000117219
  33   0.000000122131
  34   0.000000098111
  35   0.000000098854
  36   0.000000104390
  37   0.000000100800
  38   0.000000102707
  39   0.000000104896
  40   0.000000105033
  41   0.000000103407
  42   0.000000088249
  43   0.000000085637
  44   0.000000086541
  45   0.000000064116
  46   0.000000071937
  47   0.000000070207
  48   0.000000055822
  49   0.000000067275
  50   0.000000065821
  51   0.000000054776
  52   0.000000064289
  53   0.000000052560
  54   0.000000050215
  55   0.000000054906
  56   0.000000044286
  57   0.000000045297
  58   0.000000041978
  59   0.000000038825
  60   0.000000037067
  61   0.000000035229
  62   0.000000039694
  63   0.000000033230
  64   0.000000034224
  65   0.000000037779
  66   0.000000036825
  67   0.000000038011
  68   0.000000039394
  69   0.000000039283
  70   0.000000038994
  71   0.000000033533
  72   0.000000032647
  73   0.000000033111
  74   0.000000026552
  75   0.000000029812
  76   0.000000029012
  77   0.000000023993
  78   0.000000027760
  79   0.000000026530
  80   0.000000022010
  81   0.000000025234
  82   0.000000024040
  83   0.000000023547
  84   0.000000020553
  85   0.000000022447
  86   0.000000021334
  87   0.000000017569
  88   0.000000017891
  89   0.000000016014
  90   0.000000016738
  91   0.000000016485
  92   0.000000016441
  93   0.000000016925
  94   0.000000014699
  95   0.000000014378
  96   0.000000012793
  97   0.000000013318
  98   0.000000011062
  99   0.000000012504
 100   0.000000012365
 101   0.000000012014
 102   0.000000012477
 103   0.000000012394
 104   0.000000012251
 105   0.000000010532
 106   0.000000011363
 107   0.000000010531
 108   0.000000010124
 109   0.000000008965
 110   0.000000008721
 111   0.000000008860
 112   0.000000008370
 113   0.000000007217
 114   0.000000007199
 115   0.000000006432
 116   0.000000005877
 117   0.000000005502
 118   0.000000005194
 119   0.000000005778
 120   0.000000005758
 121   0.000000005874
 122   0.000000006098
 123   0.000000006116
 124   0.000000005287
 125   0.000000005781
 126   0.000000004698
 127   0.000000004465
 128   0.000000004749
 129   0.000000003867
 130   0.000000004404
 131   0.000000004286
 132   0.000000003643
 133   0.000000004149
 134   0.000000003962
 135   0.000000003840
 136   0.000000003951
 137   0.000000003407
 138   0.000000003334
 139   0.000000002964
 140   0.000000003075
 141   0.000000003011
 142   0.000000002990
 143   0.000000003073
 144   0.000000003064
 145   0.000000003013
 146   0.000000002956
 147   0.000000002888
 148   0.000000002467
 149   0.000000002374
 150   0.000000002089
 151   0.000000001865
 152   0.000000001727
 153   0.000000001607
 154   0.000000001766
 155   0.000000001471
 156   0.000000001500
 157   0.000000001638
 158   0.000000001585
 159   0.000000001630
 160   0.000000001678
 161   0.000000001454
 162   0.000000001604
 163   0.000000001521
 164   0.000000001454
 165   0.000000001484
 166   0.000000001462
 167   0.000000001256
 168   0.000000001218
 169   0.000000001230
 170   0.000000001148
 171   0.000000000989
 172   0.000000001116
 173   0.000000000910
 174   0.000000000869
 175   0.000000000802
 176   0.000000000734
 177   0.000000000807
 178   0.000000000800
 179   0.000000000813
 180   0.000000000724
 181   0.000000000809
 182   0.000000000663
 183   0.000000000715
 184   0.000000000704
 185   0.000000000583
 186   0.000000000678
 187   0.000000000649
 188   0.000000000548
 189   0.000000000619
 190   0.000000000504
 191   0.000000000545
 192   0.000000000458
 193   0.000000000499
 194   0.000000000496
 195   0.000000000411
 196   0.000000000425
 197   0.000000000384
 198   0.000000000407
 199   0.000000000403
 200   0.000000000404
 201   0.000000000361
 202   0.000000000402
 203   0.000000000379
 204   0.000000000369
 205   0.000000000379
 206   0.000000000326
 207   0.000000000354
 208   0.000000000288
 209   0.000000000306
 210   0.000000000299
 211   0.000000000246
 212   0.000000000284
[...]
 MP2 energy in ED [au]:          -0.063769688853
 CPU time [min]:    89.363                   Wall time [min]:     2.506
 
 MO:    13
 Number of atoms in domain:       6
 Number of atomic orbitals:     732
 Number of atoms for local DF:    6
 Number of fitting functions:  2166 (100.00%)
 Number of occupied orbitals:    27
 Number of virtual  orbitals:   675
 Number of Cholesky vectors:     10
 MP2 energy in ED [au]:          -0.063773584011
 CPU time [min]:    95.986                   Wall time [min]:     2.691
 
 MO:    14
 Number of atoms in domain:       6
 Number of atomic orbitals:     732
 Number of atoms for local DF:    6
 Number of fitting functions:  2166 (100.00%)
 Number of occupied orbitals:    27
 Number of virtual  orbitals:   675
 Number of Cholesky vectors:     10
 MP2 energy in ED [au]:          -0.063772798189
 CPU time [min]:   102.638                   Wall time [min]:     2.876
 
 MO:    15
 Number of atoms in domain:       6
 Number of atomic orbitals:     732
 Number of atoms for local DF:    6
 Number of fitting functions:  2166 (100.00%)
 Number of occupied orbitals:    27
 Number of virtual  orbitals:   675
 Number of Cholesky vectors:     10
 MP2 energy in ED [au]:          -0.063770660288
 CPU time [min]:   109.260                   Wall time [min]:     3.060
 
 MO:    16
 Number of atoms in domain:       6
 Number of atomic orbitals:     732
 Number of atoms for local DF:    6
 Number of fitting functions:  2166 (100.00%)
 Number of occupied orbitals:    27
 Number of virtual  orbitals:   675
 Number of Cholesky vectors:     10
 MP2 energy in ED [au]:          -0.063771256114
 CPU time [min]:   115.885                   Wall time [min]:     3.245
 
 MO:    17
 Number of atoms in domain:       6
 Number of atomic orbitals:     732
 Number of atoms for local DF:    6
 Number of fitting functions:  2166 (100.00%)
 Number of occupied orbitals:    27
 Number of virtual  orbitals:   675
 Number of Cholesky vectors:     10
 MP2 energy in ED [au]:          -0.063588651033
 CPU time [min]:   122.496                   Wall time [min]:     3.429
 
 MO:    18
 Number of atoms in domain:       6
 Number of atomic orbitals:     732
 Number of atoms for local DF:    6
 Number of fitting functions:  2166 (100.00%)
 Number of occupied orbitals:    27
 Number of virtual  orbitals:   675
 Number of Cholesky vectors:     10
 MP2 energy in ED [au]:          -0.063585875470
 CPU time [min]:   129.110                   Wall time [min]:     3.614
 
 MO:    19
 Number of atoms in domain:       6
 Number of atomic orbitals:     732
 Number of atoms for local DF:    6
 Number of fitting functions:  2166 (100.00%)
 Number of occupied orbitals:    27
 Number of virtual  orbitals:   675
 Number of Cholesky vectors:     10
 MP2 energy in ED [au]:          -0.063584464639
 CPU time [min]:   135.766                   Wall time [min]:     3.799
 
 MO:    20
 Number of atoms in domain:       6
 Number of atomic orbitals:     732
 Number of atoms for local DF:    6
 Number of fitting functions:  2166 (100.00%)
 Number of occupied orbitals:    27
 Number of virtual  orbitals:   675
 Number of Cholesky vectors:     10
 MP2 energy in ED [au]:          -0.063583100587
 CPU time [min]:   142.386                   Wall time [min]:     3.983
 
 MO:    21
 Number of atoms in domain:       6
 Number of atomic orbitals:     732
 Number of atoms for local DF:    6
 Number of fitting functions:  2166 (100.00%)
 Number of occupied orbitals:    27
 Number of virtual  orbitals:   675
 Number of Cholesky vectors:     10
 MP2 energy in ED [au]:          -0.063582226382
 CPU time [min]:   149.027                   Wall time [min]:     4.169
 
 MO:    22
 Number of atoms in domain:       6
 Number of atomic orbitals:     732
 Number of atoms for local DF:    6
 Number of fitting functions:  2166 (100.00%)
 Number of occupied orbitals:    37
 Number of virtual  orbitals:   675
 Number of Cholesky vectors:     10
 MP2 energy in ED [au]:          -0.064022901788
 CPU time [min]:   157.083                   Wall time [min]:     4.393
 
 MO:    23
 Number of atoms in domain:       6
 Number of atomic orbitals:     732
 Number of atoms for local DF:    6
 Number of fitting functions:  2166 (100.00%)
 Number of occupied orbitals:    37
 Number of virtual  orbitals:   675
 Number of Cholesky vectors:     10
 MP2 energy in ED [au]:          -0.063736143422
 CPU time [min]:   165.157                   Wall time [min]:     4.618
 
 MO:    24
 Number of atoms in domain:       6
 Number of atomic orbitals:     732
 Number of atoms for local DF:    6
 Number of fitting functions:  2166 (100.00%)
 Number of occupied orbitals:    37
 Number of virtual  orbitals:   675
 Number of Cholesky vectors:     10
 MP2 energy in ED [au]:          -0.063735757498
 CPU time [min]:   173.242                   Wall time [min]:     4.843
 
 MO:    25
 Number of atoms in domain:       6
 Number of atomic orbitals:     732
 Number of atoms for local DF:    6
 Number of fitting functions:  2166 (100.00%)
 Number of occupied orbitals:    57
 Number of virtual  orbitals:   675
 Number of Cholesky vectors:     10
 MP2 energy in ED [au]:          -0.131029468805
 CPU time [min]:   184.469                   Wall time [min]:     5.156
 
 MO:    26
 Number of atoms in domain:       6
 Number of atomic orbitals:     732
 Number of atoms for local DF:    6
 Number of fitting functions:  2166 (100.00%)
 Number of occupied orbitals:    57
 Number of virtual  orbitals:   675
 Number of Cholesky vectors:     10
 MP2 energy in ED [au]:          -0.131588084997
 CPU time [min]:   195.663                   Wall time [min]:     5.468
 
 MO:    27
 Number of atoms in domain:       6
 Number of atomic orbitals:     732
 Number of atoms for local DF:    6
 Number of fitting functions:  2166 (100.00%)
 Number of occupied orbitals:    57
 Number of virtual  orbitals:   675
 Number of Cholesky vectors:     10
 MP2 energy in ED [au]:          -0.134080200598
 CPU time [min]:   206.850                   Wall time [min]:     5.780
 
 MO:    28
 Number of atoms in domain:       6
 Number of atomic orbitals:     732
 Number of atoms for local DF:    6
 Number of fitting functions:  2166 (100.00%)
 Number of occupied orbitals:    49
 Number of virtual  orbitals:   675
 Number of Cholesky vectors:     10
 MP2 energy in ED [au]:          -0.131661153884
 CPU time [min]:   216.773                   Wall time [min]:     6.056
 
 MO:    29
 Number of atoms in domain:       6
 Number of atomic orbitals:     732
 Number of atoms for local DF:    6
 Number of fitting functions:  2166 (100.00%)
 Number of occupied orbitals:    49
 Number of virtual  orbitals:   675
 Number of Cholesky vectors:     10
 MP2 energy in ED [au]:          -0.128880534255
 CPU time [min]:   226.675                   Wall time [min]:     6.332
 
 MO:    30
 Number of atoms in domain:       6
 Number of atomic orbitals:     732
 Number of atoms for local DF:    6
 Number of fitting functions:  2166 (100.00%)
 Number of occupied orbitals:    49
 Number of virtual  orbitals:   675
 Number of Cholesky vectors:     10
 MP2 energy in ED [au]:          -0.128875725873
 CPU time [min]:   236.571                   Wall time [min]:     6.608
 
 MO:    31
 Number of atoms in domain:       6
 Number of atomic orbitals:     732
 Number of atoms for local DF:    6
 Number of fitting functions:  2166 (100.00%)
 Number of occupied orbitals:    49
 Number of virtual  orbitals:   675
 Number of Cholesky vectors:     10
 MP2 energy in ED [au]:          -0.130340206742
 CPU time [min]:   246.476                   Wall time [min]:     6.883
 
 MO:    32
 Number of atoms in domain:       6
 Number of atomic orbitals:     732
 Number of atoms for local DF:    6
 Number of fitting functions:  2166 (100.00%)
 Number of occupied orbitals:    49
 Number of virtual  orbitals:   675
 Number of Cholesky vectors:     10
 MP2 energy in ED [au]:          -0.129423089542
 CPU time [min]:   256.378                   Wall time [min]:     7.159
 
 MO:    33
 Number of atoms in domain:       6
 Number of atomic orbitals:     732
 Number of atoms for local DF:    6
 Number of fitting functions:  2166 (100.00%)
 Number of occupied orbitals:    49
 Number of virtual  orbitals:   675
 Number of Cholesky vectors:     10
 MP2 energy in ED [au]:          -0.130016603841
 CPU time [min]:   266.275                   Wall time [min]:     7.435
 
 MO:    34
 Number of atoms in domain:       6
 Number of atomic orbitals:     732
 Number of atoms for local DF:    6
 Number of fitting functions:  2166 (100.00%)
 Number of occupied orbitals:    49
 Number of virtual  orbitals:   675
 Number of Cholesky vectors:     10
 MP2 energy in ED [au]:          -0.128705679873
 CPU time [min]:   276.209                   Wall time [min]:     7.712
 
 MO:    35
 Number of atoms in domain:       6
 Number of atomic orbitals:     732
 Number of atoms for local DF:    6
 Number of fitting functions:  2166 (100.00%)
 Number of occupied orbitals:    49
 Number of virtual  orbitals:   675
 Number of Cholesky vectors:     10
 MP2 energy in ED [au]:          -0.128642601596
 CPU time [min]:   286.134                   Wall time [min]:     7.988
 
 MO:    36
 Number of atoms in domain:       6
 Number of atomic orbitals:     732
 Number of atoms for local DF:    6
 Number of fitting functions:  2166 (100.00%)
 Number of occupied orbitals:    49
 Number of virtual  orbitals:   675
 Number of Cholesky vectors:     10
 MP2 energy in ED [au]:          -0.129544302482
 CPU time [min]:   296.048                   Wall time [min]:     8.264
 
 MO:    37
 Number of atoms in domain:       6
 Number of atomic orbitals:     732
 Number of atoms for local DF:    6
 Number of fitting functions:  2166 (100.00%)
 Number of occupied orbitals:    49
 Number of virtual  orbitals:   675
 Number of Cholesky vectors:     10
 MP2 energy in ED [au]:          -0.130083487686
 CPU time [min]:   305.950                   Wall time [min]:     8.540
 
 MO:    38
 Number of atoms in domain:       6
 Number of atomic orbitals:     732
 Number of atoms for local DF:    6
 Number of fitting functions:  2166 (100.00%)
 Number of occupied orbitals:    49
 Number of virtual  orbitals:   675
 Number of Cholesky vectors:     10
 MP2 energy in ED [au]:          -0.128662833343
 CPU time [min]:   315.848                   Wall time [min]:     8.816
 
 MO:    39
 Number of atoms in domain:       6
 Number of atomic orbitals:     732
 Number of atoms for local DF:    6
 Number of fitting functions:  2166 (100.00%)
 Number of occupied orbitals:    49
 Number of virtual  orbitals:   675
 Number of Cholesky vectors:     10
 MP2 energy in ED [au]:          -0.129754939174
 CPU time [min]:   325.773                   Wall time [min]:     9.092
 
 MO:    40
 Number of atoms in domain:       6
 Number of atomic orbitals:     732
 Number of atoms for local DF:    6
 Number of fitting functions:  2166 (100.00%)
 Number of occupied orbitals:    49
 Number of virtual  orbitals:   675
 Number of Cholesky vectors:     10
 MP2 energy in ED [au]:          -0.129666118469
 CPU time [min]:   335.667                   Wall time [min]:     9.368
 
 MO:    41
 Number of atoms in domain:       6
 Number of atomic orbitals:     732
 Number of atoms for local DF:    6
 Number of fitting functions:  2166 (100.00%)
 Number of occupied orbitals:    49
 Number of virtual  orbitals:   675
 Number of Cholesky vectors:     10
 MP2 energy in ED [au]:          -0.129790861136
 CPU time [min]:   345.586                   Wall time [min]:     9.644
 
 MO:    42
 Number of atoms in domain:       6
 Number of atomic orbitals:     732
 Number of atoms for local DF:    6
 Number of fitting functions:  2166 (100.00%)
 Number of occupied orbitals:    49
 Number of virtual  orbitals:   675
 Number of Cholesky vectors:     10
 MP2 energy in ED [au]:          -0.131533216245
 CPU time [min]:   355.503                   Wall time [min]:     9.921
 
 MO:    43
 Number of atoms in domain:       6
 Number of atomic orbitals:     732
 Number of atoms for local DF:    6
 Number of fitting functions:  2166 (100.00%)
 Number of occupied orbitals:    49
 Number of virtual  orbitals:   675
 Number of Cholesky vectors:     10
 MP2 energy in ED [au]:          -0.130764685103
 CPU time [min]:   365.414                   Wall time [min]:    10.197
 
 MO:    44
 Number of atoms in domain:       6
 Number of atomic orbitals:     732
 Number of atoms for local DF:    6
 Number of fitting functions:  2166 (100.00%)
 Number of occupied orbitals:    49
 Number of virtual  orbitals:   675
 Number of Cholesky vectors:     10
 MP2 energy in ED [au]:          -0.129167437624
 CPU time [min]:   375.327                   Wall time [min]:    10.473
 
 MO:    45
 Number of atoms in domain:       6
 Number of atomic orbitals:     732
 Number of atoms for local DF:    6
 Number of fitting functions:  2166 (100.00%)
 Number of occupied orbitals:    49
 Number of virtual  orbitals:   675
 Number of Cholesky vectors:     10
 MP2 energy in ED [au]:          -0.130714645909
 CPU time [min]:   385.245                   Wall time [min]:    10.749
 
 MO:    46
 Number of atoms in domain:       6
 Number of atomic orbitals:     732
 Number of atoms for local DF:    6
 Number of fitting functions:  2166 (100.00%)
 Number of occupied orbitals:    49
 Number of virtual  orbitals:   675
 Number of Cholesky vectors:     10
 MP2 energy in ED [au]:          -0.130155928130
 CPU time [min]:   395.191                   Wall time [min]:    11.026
 
 MO:    47
 Number of atoms in domain:       6
 Number of atomic orbitals:     732
 Number of atoms for local DF:    6
 Number of fitting functions:  2166 (100.00%)
 Number of occupied orbitals:    49
 Number of virtual  orbitals:   675
 Number of Cholesky vectors:     10
 MP2 energy in ED [au]:          -0.129171157106
 CPU time [min]:   405.095                   Wall time [min]:    11.302
 
 MO:    48
 Number of atoms in domain:       6
 Number of atomic orbitals:     732
 Number of atoms for local DF:    6
 Number of fitting functions:  2166 (100.00%)
 Number of occupied orbitals:    49
 Number of virtual  orbitals:   675
 Number of Cholesky vectors:     10
 MP2 energy in ED [au]:          -0.130299414732
 CPU time [min]:   415.006                   Wall time [min]:    11.578
 
 MO:    49
 Number of atoms in domain:       6
 Number of atomic orbitals:     732
 Number of atoms for local DF:    6
 Number of fitting functions:  2166 (100.00%)
 Number of occupied orbitals:    49
 Number of virtual  orbitals:   675
 Number of Cholesky vectors:     10
 MP2 energy in ED [au]:          -0.129445490482
 CPU time [min]:   424.959                   Wall time [min]:    11.855
 
 MO:    50
 Number of atoms in domain:       6
 Number of atomic orbitals:     732
 Number of atoms for local DF:    6
 Number of fitting functions:  2166 (100.00%)
 Number of occupied orbitals:    49
 Number of virtual  orbitals:   675
 Number of Cholesky vectors:     10
 MP2 energy in ED [au]:          -0.130031620536
 CPU time [min]:   434.874                   Wall time [min]:    12.132
 
 MO:    51
 Number of atoms in domain:       6
 Number of atomic orbitals:     732
 Number of atoms for local DF:    6
 Number of fitting functions:  2166 (100.00%)
 Number of occupied orbitals:    49
 Number of virtual  orbitals:   675
 Number of Cholesky vectors:     10
 MP2 energy in ED [au]:          -0.129587951705
 CPU time [min]:   444.781                   Wall time [min]:    12.408
 
 MO:    52
 Number of atoms in domain:       6
 Number of atomic orbitals:     732
 Number of atoms for local DF:    6
 Number of fitting functions:  2166 (100.00%)
 Number of occupied orbitals:    49
 Number of virtual  orbitals:   675
 Number of Cholesky vectors:     10
 MP2 energy in ED [au]:          -0.131514896482
 CPU time [min]:   454.678                   Wall time [min]:    12.683
 
 MO:    53
 Number of atoms in domain:       6
 Number of atomic orbitals:     732
 Number of atoms for local DF:    6
 Number of fitting functions:  2166 (100.00%)
 Number of occupied orbitals:    57
 Number of virtual  orbitals:   675
 Number of Cholesky vectors:     10
 MP2 energy in ED [au]:          -0.131603896526
 CPU time [min]:   465.853                   Wall time [min]:    12.995
 
 MO:    54
 Number of atoms in domain:       6
 Number of atomic orbitals:     732
 Number of atoms for local DF:    6
 Number of fitting functions:  2166 (100.00%)
 Number of occupied orbitals:    57
 Number of virtual  orbitals:   675
 Number of Cholesky vectors:     10
 MP2 energy in ED [au]:          -0.134173820538
 CPU time [min]:   477.055                   Wall time [min]:    13.307
 
 MO:    55
 Number of atoms in domain:       6
 Number of atomic orbitals:     732
 Number of atoms for local DF:    6
 Number of fitting functions:  2166 (100.00%)
 Number of occupied orbitals:    57
 Number of virtual  orbitals:   675
 Number of Cholesky vectors:     10
 MP2 energy in ED [au]:          -0.120864778697
 CPU time [min]:   488.229                   Wall time [min]:    13.618
 
 MO:    56
 Number of atoms in domain:       6
 Number of atomic orbitals:     732
 Number of atoms for local DF:    6
 Number of fitting functions:  2166 (100.00%)
 Number of occupied orbitals:    57
 Number of virtual  orbitals:   675
 Number of Cholesky vectors:     10
 MP2 energy in ED [au]:          -0.120695468241
 CPU time [min]:   499.417                   Wall time [min]:    13.929
 
 MO:    57
 Number of atoms in domain:       6
 Number of atomic orbitals:     732
 Number of atoms for local DF:    6
 Number of fitting functions:  2166 (100.00%)
 Number of occupied orbitals:    57
 Number of virtual  orbitals:   675
 Number of Cholesky vectors:     10
 MP2 energy in ED [au]:          -0.120825301153
 CPU time [min]:   510.600                   Wall time [min]:    14.241
 
 **********************************************************************
 Dimensions of the extended domains:    Minimum / Average / Maximum
 
 Number of atoms in domain:                   6       6.0         6
 Number of atomic orbitals:                 732     732.0       732
 Number of fitting functions:              2166    2166.0      2166
 Number of occupied localized MOs:           27      41.6        57
 Number of PAOs:                            675     675.0       675
 
 **********************************************************************
 Final local correlation results
 
 Sum of pair energies [au]:                    -0.000166860361    (0.003%)
 Sum of energy corrections [au]:                0.000000000000    (0.000%)
 Sum of LMO contributions [au]:                -5.800468476753
 
 Reference energy [au]:                      -879.953410165249
 MP2 contribution [au]:                        -1.566171541021
 B2PLYP energy [au]:                         -881.519581706270
 
 **********************************************************************
  Time of manipulations in the EDs:      max CPU/Wall [s]  all CPU/Wall [min]
 
 PD construction & multipole pair E     476.52    13.92     7.94     0.23
 Construct MO basis of the ED             7.46     0.21     5.36     0.15
 (mu,nu|P) evaluation & trf 2 (ai|P)    574.11    16.00   429.86    11.97
 Evaluate MP2 energy of the ED           76.66     2.14    53.39     1.49
 Total of the above for all EDs         658.23    18.35   488.61    13.61
 
 **********************************************************************
 Maximum memory requirement [MB]:       
 
 PD construction & multipole pair E         42.4
 AO integral evaluation in the EDs        2959.4
 (mu,nu|P) evaluation & trf 2 (aI|P)      4534.7
 Evaluate MP2 energy in the EDs           1030.0
 
 ************************ 2023-02-15 03:50:50 *************************
                      Normal termination of mrcc.
 **********************************************************************
