 vasp.6.3.0 20Jan22 (build Apr  1 2022 16:44:48) complex                         
 executed on        HPECrayEX_GCC date 2023.01.06  21:34:14
 running  384 mpi-ranks, with    1 threads/rank
 distrk:  each k-point on  192 cores,    2 groups
 distr:  one band on NCORE=   4 cores,   48 groups


--------------------------------------------------------------------------------------------------------


 INCAR:
   SYSTEM = MgO-rocksalt
   ISMEAR = 0
   SIGMA = 0.05
   EDIFF = 1E-6
   ALGO = ALL
   ISTART = 0
   IBRION = -1
   NSW = 0
   ISYM = 2
   METAGGA = R2SCAN
   ENCUT = 520
   PREC = Accurate
   LASPH = .TRUE.
   LREAL = Auto
   ISPIN = 1
   NELM = 200
   NELMIN = 8
   NCORE = 4
   KPAR = 2
   LWAVE = .FALSE.
   LCHARG = .FALSE.

 POTCAR:    PAW_PBE Ag 02Apr2005                  
 POTCAR:    PAW_PBE Ag 02Apr2005                  
   SHA256 =  6550cfa3543261e132c169e1b98a529204624d72be14e2da2e0242bcb74a174d Ag/POTCAR             
   COPYR  = (c) Copyright 02Apr2005 Georg Kresse                                                    
   COPYR  = This file is part of the software VASP. Any use, copying, and all other rights are regul
   COPYR  = If you do not have a valid VASP license, you may not use, copy or distribute this file. 
   VRHFIN =Ag : s1 d10                                                                              
   LEXCH  = PE                                                                                      
   EATOM  =  1037.2675 eV,   76.2370 Ry                                                             
                                                                                                    
   TITEL  = PAW_PBE Ag 02Apr2005                                                                    
   LULTRA =        F    use ultrasoft PP ?                                                          
   IUNSCR =        1    unscreen: 0-lin 1-nonlin 2-no                                               
   RPACOR =    2.000    partial core radius                                                         
   POMASS =  107.868; ZVAL   =   11.000    mass and valenz                                          
   RCORE  =    2.500    outmost cutoff radius                                                       
   RWIGS  =    2.840; RWIGS  =    1.503    wigner-seitz radius (au A)                               
   ENMAX  =  249.844; ENMIN  =  187.383 eV                                                          
   ICORE  =        3    local potential                                                             
   LCOR   =        T    correct aug charges                                                         
   LPAW   =        T    paw PP                                                                      
   EAUG   =  412.496                                                                                
   DEXC   =    0.000                                                                                
   RMAX   =    2.560    core radius for proj-oper                                                   
   RAUG   =    1.300    factor for augmentation sphere                                              
   RDEP   =    2.576    radius for radial grids                                                     
   RDEPT  =    2.072    core radius for aug-charge                                                  
                                                                                                    
   Atomic configuration                                                                             
   12 entries                                                                                       
     n  l   j            E        occ.                                                              
     1  0  0.50    -25324.9161   2.0000                                                             
     2  0  0.50     -3728.5341   2.0000                                                             
     2  1  1.50     -3344.0404   6.0000                                                             
     3  0  0.50      -683.5581   2.0000                                                             
     3  1  1.50      -557.3225   6.0000                                                             
     3  2  2.50      -358.3853  10.0000                                                             
     4  0  0.50       -95.0341   2.0000                                                             
     4  1  1.50       -58.5511   6.0000                                                             
     4  2  2.50        -7.4440  10.0000                                                             
     5  0  0.50        -4.4045   1.0000                                                             
     5  1  0.50        -1.3606   0.0000                                                             
     4  3  2.50        -1.3606   0.0000                                                             
   Description                                                                                      
     l       E           TYP  RCUT    TYP  RCUT                                                     
     2     -7.4439781     23  2.400                                                                 
     2     -8.8045607     23  2.400                                                                 
     0     -4.4044681     23  2.400                                                                 
     0      1.9520038     23  2.400                                                                 
     1     -1.3605826     23  2.500                                                                 
     1     27.2116520     23  2.500                                                                 
     3     -4.0817478     23  2.400                                                                 
  local pseudopotential read in
  partial core-charges read in
  partial kinetic energy density read in
  atomic valenz-charges read in
  non local Contribution for L=           2  read in
    real space projection operators read in
  non local Contribution for L=           2  read in
    real space projection operators read in
  non local Contribution for L=           0  read in
    real space projection operators read in
  non local Contribution for L=           0  read in
    real space projection operators read in
  non local Contribution for L=           1  read in
    real space projection operators read in
  non local Contribution for L=           1  read in
    real space projection operators read in
    PAW grid and wavefunctions read in

   number of l-projection  operators is LMAX  =           6
   number of lm-projection operators is LMMAX =          18

 -----------------------------------------------------------------------------
|                                                                             |
|               ----> ADVICE to this user running VASP <----                  |
|                                                                             |
|     You have a (more or less) 'small supercell' and for smaller cells       |
|     it is recommended to use the reciprocal-space projection scheme!        |
|     The real-space optimization is not efficient for small cells and it     |
|     is also less accurate ...                                               |
|     Therefore, set LREAL=.FALSE. in the INCAR file.                         |
|                                                                             |
 -----------------------------------------------------------------------------

 Optimization of the real space projectors (new method)

 maximal supplied QI-value         = 15.12
 optimisation between [QCUT,QGAM] = [ 11.64, 23.28] = [ 37.95,151.78] Ry 
 Optimized for a Real-space Cutoff    1.45 Angstroem

   l    n(q)    QCUT    max X(q) W(low)/X(q) W(high)/X(q)  e(spline) 
   2      9    11.641    53.897    0.22E-03    0.42E-04    0.28E-06
   2      9    11.641    52.416    0.23E-03    0.44E-04    0.29E-06
   0     10    11.641   122.045    0.51E-04    0.25E-04    0.16E-06
   0     10    11.641    73.629    0.49E-04    0.24E-04    0.16E-06
   1     10    11.641    15.255    0.99E-04    0.55E-04    0.11E-06
   1     10    11.641     9.562    0.81E-04    0.47E-04    0.95E-07
  PAW_PBE Ag 02Apr2005                  :
 energy of atom  1       EATOM=-1037.2675
 kinetic energy error for atom=    0.0047 (will be added to EATOM!!)


 POSCAR: Ag
  positions in direct lattice
  velocities in cartesian coordinates

 METAGGA = R2SCA    LMAXTAU =  6    LMIXTAU =  F

 exchange correlation table for  LEXCH =        8
   RHO(1)=    0.500       N(1)  =     2000
   RHO(2)=  100.500       N(2)  =     4000



--------------------------------------------------------------------------------------------------------


 ion  position               nearest neighbor table
   1  0.459  0.344  0.543-   3 2.60   4 2.70
   2  0.532  0.526  0.446-   5 2.60   4 2.63   3 2.74   6 3.04
   3  0.468  0.474  0.555-   1 2.60   6 2.63   2 2.74   4 3.05
   4  0.523  0.396  0.436-   2 2.63   1 2.70   3 3.05
   5  0.541  0.656  0.456-   2 2.60   6 2.71
   6  0.477  0.604  0.564-   3 2.63   5 2.71   2 3.04

  LATTYP: Found a simple cubic cell.
 ALAT       =    20.0000000000
  
  Lattice vectors:
  
 A1 = (  20.0000000000,   0.0000000000,   0.0000000000)
 A2 = (   0.0000000000,  20.0000000000,   0.0000000000)
 A3 = (   0.0000000000,   0.0000000000,  20.0000000000)


Analysis of symmetry for initial positions (statically):
=====================================================================
 Subroutine PRICEL returns:
 Original cell was already a primitive cell.
 

 Routine SETGRP: Setting up the symmetry group for a 
 simple cubic supercell.


 Subroutine GETGRP returns: Found  1 space group operations
 (whereof  1 operations were pure point group operations)
 out of a pool of 48 trial point group operations.


The static configuration has the point symmetry C_1 .


Analysis of symmetry for dynamics (positions and initial velocities):
=====================================================================
 Subroutine PRICEL returns:
 Original cell was already a primitive cell.
 

 Routine SETGRP: Setting up the symmetry group for a 
 simple cubic supercell.


 Subroutine GETGRP returns: Found  1 space group operations
 (whereof  1 operations were pure point group operations)
 out of a pool of 48 trial point group operations.


The dynamic configuration has the point symmetry C_1 .


 Subroutine INISYM returns: Found  1 space group operations
 (whereof  1 operations are pure point group operations),
 and found     1 'primitive' translations


----------------------------------------------------------------------------------------

                                     Primitive cell                                     

  volume of cell :    8000.0000

  direct lattice vectors                    reciprocal lattice vectors
    20.000000000  0.000000000  0.000000000     0.050000000  0.000000000  0.000000000
     0.000000000 20.000000000  0.000000000     0.000000000  0.050000000  0.000000000
     0.000000000  0.000000000 20.000000000     0.000000000  0.000000000  0.050000000

  length of vectors
    20.000000000 20.000000000 20.000000000     0.050000000  0.050000000  0.050000000

  position of ions in fractional coordinates (direct lattice)
     0.459156505  0.344440884  0.543437521
     0.531713138  0.526369565  0.445627435
     0.468108492  0.473648908  0.554679367
     0.522675558  0.395690157  0.435604448
     0.540924936  0.655612949  0.456386841
     0.477353056  0.604318885  0.564274097

  ion indices of the primitive-cell ions
   primitive index   ion index
                 1           1
                 2           2
                 3           3
                 4           4
                 5           5
                 6           6

----------------------------------------------------------------------------------------



 KPOINTS: KPOINTS created by Atomic Simulation Env

Automatic generation of k-mesh.
 Grid dimensions read from file:
 generate k-points for:    1    1    1

 Generating k-lattice:

  Cartesian coordinates                     Fractional coordinates (reciprocal lattice)
     0.050000000  0.000000000  0.000000000     1.000000000  0.000000000  0.000000000
     0.000000000  0.050000000  0.000000000     0.000000000  1.000000000  0.000000000
     0.000000000  0.000000000  0.050000000     0.000000000  0.000000000  1.000000000

  Length of vectors
     0.050000000  0.050000000  0.050000000

  Shift w.r.t. Gamma in fractional coordinates (k-lattice)
     0.000000000  0.000000000  0.000000000

 
 Subroutine IBZKPT returns following result:
 ===========================================
 
 Found      1 irreducible k-points:
 
 Following reciprocal coordinates:
            Coordinates               Weight
  0.000000  0.000000  0.000000      1.000000
 
 Following cartesian coordinates:
            Coordinates               Weight
  0.000000  0.000000  0.000000      1.000000
 


--------------------------------------------------------------------------------------------------------




 Dimension of arrays:
   k-points           NKPTS =      1   k-points in BZ     NKDIM =      1   number of bands    NBANDS=     48
   number of dos      NEDOS =    301   number of ions     NIONS =      6
   non local maximal  LDIM  =      6   non local SUM 2l+1 LMDIM =     18
   total plane-waves  NPLWV = ******
   max r-space proj   IRMAX =   5390   max aug-charges    IRDMAX=  20940
   dimension x,y,z NGX =   150 NGY =  150 NGZ =  150
   dimension x,y,z NGXF=   300 NGYF=  300 NGZF=  300
   support grid    NGXF=   300 NGYF=  300 NGZF=  300
   ions per type =               6
   NGX,Y,Z   is equivalent  to a cutoff of  12.47, 12.47, 12.47 a.u.
   NGXF,Y,Z  is equivalent  to a cutoff of  24.94, 24.94, 24.94 a.u.

 SYSTEM =  MgO-rocksalt                            
 POSCAR =  Ag                                      

 Startparameter for this run:
   NWRITE =      2    write-flag & timer
   PREC   = accura    normal or accurate (medium, high low for compatibility)
   ISTART =      0    job   : 0-new  1-cont  2-samecut
   ICHARG =      2    charge: 1-file 2-atom 10-const
   ISPIN  =      1    spin polarized calculation?
   LNONCOLLINEAR =      F non collinear calculations
   LSORBIT =      F    spin-orbit coupling
   INIWAV =      1    electr: 0-lowe 1-rand  2-diag
   LASPH  =      T    aspherical Exc in radial PAW
 Electronic Relaxation 1
   ENCUT  =  520.0 eV  38.22 Ry    6.18 a.u.  37.19 37.19 37.19*2*pi/ulx,y,z
   ENINI  =  520.0     initial cutoff
   ENAUG  =  412.5 eV  augmentation charge cutoff
   NELM   =    200;   NELMIN=  8; NELMDL= -5     # of ELM steps 
   EDIFF  = 0.1E-05   stopping-criterion for ELM
   LREAL  =      T    real-space projection
   NLSPLINE    = F    spline interpolate recip. space projectors
   LCOMPAT=      F    compatible to vasp.4.4
   GGA_COMPAT  = T    GGA compatible to vasp.4.4-vasp.4.6
   LMAXPAW     = -100 max onsite density
   LMAXMIX     =    2 max onsite mixed and CHGCAR
   VOSKOWN=      0    Vosko Wilk Nusair interpolation
   ROPT   =   -0.00025
 Ionic relaxation
   EDIFFG = 0.1E-04   stopping-criterion for IOM
   NSW    =      0    number of steps for IOM
   NBLOCK =      1;   KBLOCK =      1    inner block; outer block 
   IBRION =     -1    ionic relax: 0-MD 1-quasi-New 2-CG
   NFREE  =      0    steps in history (QN), initial steepest desc. (CG)
   ISIF   =      2    stress and relaxation
   IWAVPR =     10    prediction:  0-non 1-charg 2-wave 3-comb
   ISYM   =      2    0-nonsym 1-usesym 2-fastsym
   LCORR  =      T    Harris-Foulkes like correction to forces

   POTIM  = 0.5000    time-step for ionic-motion
   TEIN   =    0.0    initial temperature
   TEBEG  =    0.0;   TEEND  =   0.0 temperature during run
   SMASS  =  -3.00    Nose mass-parameter (am)
   estimated Nose-frequenzy (Omega)   =  0.10E-29 period in steps = 0.13E+47 mass=  -0.914E-26a.u.
   SCALEE = 1.0000    scale energy and forces
   NPACO  =    256;   APACO  = 10.0  distance and # of slots for P.C.
   PSTRESS=    0.0 pullay stress

  Mass of Ions in am
   POMASS = 107.87
  Ionic Valenz
   ZVAL   =  11.00
  Atomic Wigner-Seitz radii
   RWIGS  =  -1.00
  virtual crystal weights 
   VCA    =   1.00
   NELECT =      66.0000    total number of electrons
   NUPDOWN=      -1.0000    fix difference up-down

 DOS related values:
   EMIN   =  10.00;   EMAX   =-10.00  energy-range for DOS
   EFERMI =   0.00
   ISMEAR =     0;   SIGMA  =   0.05  broadening in eV -4-tet -1-fermi 0-gaus

 Electronic relaxation 2 (details)
   IALGO  =     58    algorithm
   LDIAG  =      T    sub-space diagonalisation (order eigenvalues)
   LSUBROT=      F    optimize rotation matrix (better conditioning)
   TURBO    =      0    0=normal 1=particle mesh
   IRESTART =      0    0=no restart 2=restart with 2 vectors
   NREBOOT  =      0    no. of reboots
   NMIN     =      0    reboot dimension
   EREF     =   0.00    reference energy to select bands
   IMIX   =      4    mixing-type and parameters
     AMIX     =   0.40;   BMIX     =  1.00
     AMIX_MAG =   1.60;   BMIX_MAG =  1.00
     AMIN     =   0.10
     WC   =   100.;   INIMIX=   1;  MIXPRE=   1;  MAXMIX= -45

 Intra band minimization:
   WEIMIN = 0.0000     energy-eigenvalue tresh-hold
   EBREAK =  0.52E-08  absolut break condition
   DEPER  =   0.30     relativ break condition  

   TIME   =   0.40     timestep for ELM

  volume/ion in A,a.u.               =    1333.33      8997.78
  Fermi-wavevector in a.u.,A,eV,Ry     =   0.330795  0.625113  1.488826  0.109426
  Thomas-Fermi vector in A             =   1.226404

 Write flags
   LWAVE        =      F    write WAVECAR
   LDOWNSAMPLE  =      F    k-point downsampling of WAVECAR
   LCHARG       =      F    write CHGCAR
   LVTOT        =      F    write LOCPOT, total local potential
   LVHAR        =      F    write LOCPOT, Hartree potential only
   LELF         =      F    write electronic localiz. function (ELF)
   LORBIT       =      0    0 simple, 1 ext, 2 COOP (PROOUT), +10 PAW based schemes


 Dipole corrections
   LMONO  =      F    monopole corrections only (constant potential shift)
   LDIPOL =      F    correct potential (dipole corrections)
   IDIPOL =      0    1-x, 2-y, 3-z, 4-all directions 
   EPSILON=  1.0000000 bulk dielectric constant

 Exchange correlation treatment:
   GGA     =    --    GGA type
   LEXCH   =     8    internal setting for exchange type
   LIBXC   =     F    Libxc                    
   VOSKOWN =     0    Vosko Wilk Nusair interpolation
   LHFCALC =     F    Hartree Fock is set to
   LHFONE  =     F    Hartree Fock one center treatment
   AEXX    =    0.0000 exact exchange contribution

 Linear response parameters
   LEPSILON=     F    determine dielectric tensor
   LRPA    =     F    only Hartree local field effects (RPA)
   LNABLA  =     F    use nabla operator in PAW spheres
   LVEL    =     F    velocity operator in full k-point grid
   CSHIFT  =0.1000    complex shift for real part using Kramers Kronig
   OMEGAMAX=  -1.0    maximum frequency
   DEG_THRESHOLD= 0.2000000E-02 threshold for treating states as degnerate
   RTIME   =   -0.100 relaxation time in fs
  (WPLASMAI=    0.000 imaginary part of plasma frequency in eV, 0.658/RTIME)
   DFIELD  = 0.0000000 0.0000000 0.0000000 field for delta impulse in time

  Optional k-point grid parameters
   LKPOINTS_OPT  =     F    use optional k-point grid
   KPOINTS_OPT_MODE=     1    mode for optional k-point grid

 Orbital magnetization related:
   ORBITALMAG=     F  switch on orbital magnetization
   LCHIMAG   =     F  perturbation theory with respect to B field
   DQ        =  0.001000  dq finite difference perturbation B field
   LLRAUG    =     F  two centre corrections for induced B field



--------------------------------------------------------------------------------------------------------


 Static calculation
 charge density and potential will be updated during run
 non-spin polarized calculation
 Conjugate gradient for all bands (Freysoldt, et al. PRB 79, 241103 (2009))
 preconditioned conjugated gradient                                        
 perform sub-space diagonalisation
    before iterative eigenvector-optimisation
 modified Broyden-mixing scheme, WC =      100.0
 initial mixing is a Kerker type mixing with AMIX =  0.4000 and BMIX =      1.0000
 Hartree-type preconditioning will be used
 using additional bands           15
 real space projection scheme for non local part
 use partial core corrections
 no Harris-corrections to forces 
 use gradient corrections 
 use of overlap-Matrix (Vanderbilt PP)
 Gauss-broadening in eV      SIGMA  =   0.05


--------------------------------------------------------------------------------------------------------


  energy-cutoff  :      520.00
  volume of cell :     8000.00
      direct lattice vectors                 reciprocal lattice vectors
    20.000000000  0.000000000  0.000000000     0.050000000  0.000000000  0.000000000
     0.000000000 20.000000000  0.000000000     0.000000000  0.050000000  0.000000000
     0.000000000  0.000000000 20.000000000     0.000000000  0.000000000  0.050000000

  length of vectors
    20.000000000 20.000000000 20.000000000     0.050000000  0.050000000  0.050000000



 k-points in units of 2pi/SCALE and weight: KPOINTS created by Atomic Simulation Env
   0.00000000  0.00000000  0.00000000       1.000

 k-points in reciprocal lattice and weights: KPOINTS created by Atomic Simulation Env
   0.00000000  0.00000000  0.00000000       1.000

 position of ions in fractional coordinates (direct lattice) 
   0.45915651  0.34444088  0.54343752
   0.53171314  0.52636957  0.44562743
   0.46810849  0.47364891  0.55467937
   0.52267556  0.39569016  0.43560445
   0.54092494  0.65561295  0.45638684
   0.47735306  0.60431888  0.56427410

 position of ions in cartesian coordinates  (Angst):
   9.18313010  6.88881767 10.86875042
  10.63426275 10.52739130  8.91254869
   9.36216984  9.47297816 11.09358734
  10.45351117  7.91380313  8.71208896
  10.81849872 13.11225899  9.12773682
   9.54706112 12.08637770 11.28548195



--------------------------------------------------------------------------------------------------------


 k-point   1 :   0.0000 0.0000 0.0000  plane waves:  215503

 maximum and minimum number of plane-waves per node :     53900    53857

 maximum number of plane-waves:    215503
 maximum index in each direction: 
   IXMAX=   37   IYMAX=   37   IZMAX=   37
   IXMIN=  -37   IYMIN=  -37   IZMIN=  -37


 real space projection operators:
  total allocation   :       4371.19 KBytes
  max/ min on nodes  :       1094.91       1090.55


 parallel 3D FFT for wavefunctions:
    minimum data exchange during FFTs selected (reduces bandwidth)
 parallel 3D FFT for charge:
    minimum data exchange during FFTs selected (reduces bandwidth)


 total amount of memory used by VASP MPI-rank0   137367. kBytes
=======================================================================

   base      :      30000. kBytes
   nonlr-proj:       1890. kBytes
   fftplans  :      31079. kBytes
   grid      :      71778. kBytes
   one-center:         31. kBytes
   wavefun   :       2589. kBytes

     INWAV:  cpu time      0.0001: real time      0.0001
 Broyden mixing: mesh for mixing (old mesh)
   NGX = 75   NGY = 75   NGZ = 75
  (NGX  =300   NGY  =300   NGZ  =300)
  gives a total of 421875 points

 initial charge density was supplied:
 charge density of overlapping atoms calculated
 number of electron      66.0000000 magnetization 
 keeping initial charge density in first step


--------------------------------------------------------------------------------------------------------


 Maximum index for non-local projection operator         1313
 Maximum index for augmentation-charges            0 (set IRDMAX)


--------------------------------------------------------------------------------------------------------


 First call to EWALD:  gamma=   0.089
 Maximum number of real-space cells 3x 3x 3
 Maximum number of reciprocal cells 3x 3x 3

    FEWALD:  cpu time      0.0011: real time      0.0011


--------------------------------------- Iteration      1(   1)  ---------------------------------------


    POTLOK:  cpu time      0.4487: real time      0.4490
    SETDIJ:  cpu time      0.6589: real time      0.6595
    TRIAL :  cpu time      1.0707: real time      1.0710
    CORREC:  cpu time      0.0009: real time      0.0009
    --------------------------------------------
      LOOP:  cpu time      2.1810: real time      2.1822

 eigenvalue-minimisations  :    96
 total energy-change (2. order) : 0.4305587E+03  (-0.1139004E+04)
 number of electron      66.0000000 magnetization 
 augmentation part       66.0000000 magnetization 

 Free energy of the ion-electron system (eV)
  ---------------------------------------------------
  alpha Z        PSCENC =         3.82760131
  Ewald energy   TEWEN  =      3468.15398447
  -Hartree energ DENC   =     -9412.04390781
  -exchange      EXHF   =         0.00000000
  -V(xc)+E(xc)   XCENC  =        -3.74588364
  PAW double counting   =      5939.73619756    -5820.99873341
  entropy T*S    EENTRO =        -0.01084066
  eigenvalues    EBANDS =        32.06359051
  atomic energy  EATOM  =      6223.57668875
  ---------------------------------------------------
  free energy    TOTEN  =       430.55869709 eV

  energy without entropy =      430.56953775  energy(sigma->0) =      430.56411742


--------------------------------------------------------------------------------------------------------




--------------------------------------- Iteration      1(   2)  ---------------------------------------


    TRIAL :  cpu time      1.7710: real time      1.7717
    CORREC:  cpu time      0.0006: real time      0.0006
    --------------------------------------------
      LOOP:  cpu time      1.7751: real time      1.7762

 eigenvalue-minimisations  :   192
 total energy-change (2. order) :-0.4236185E+03  (-0.4236055E+03)
 number of electron      66.0000000 magnetization 
 augmentation part       66.0000000 magnetization 

 Free energy of the ion-electron system (eV)
  ---------------------------------------------------
  alpha Z        PSCENC =         3.82760131
  Ewald energy   TEWEN  =      3468.15398447
  -Hartree energ DENC   =     -9412.04390781
  -exchange      EXHF   =         0.00000000
  -V(xc)+E(xc)   XCENC  =        -3.74588364
  PAW double counting   =      5939.73619756    -5820.99873341
  entropy T*S    EENTRO =        -0.00000041
  eigenvalues    EBANDS =      -391.56577833
  atomic energy  EATOM  =      6223.57668875
  ---------------------------------------------------
  free energy    TOTEN  =         6.94016850 eV

  energy without entropy =        6.94016891  energy(sigma->0) =        6.94016871


--------------------------------------------------------------------------------------------------------




--------------------------------------- Iteration      1(   3)  ---------------------------------------


    TRIAL :  cpu time      1.7683: real time      1.7687
    CORREC:  cpu time      0.0003: real time      0.0003
    --------------------------------------------
      LOOP:  cpu time      1.7719: real time      1.7727

 eigenvalue-minimisations  :   192
 total energy-change (2. order) :-0.1450293E+03  (-0.1450293E+03)
 number of electron      66.0000000 magnetization 
 augmentation part       66.0000000 magnetization 

 Free energy of the ion-electron system (eV)
  ---------------------------------------------------
  alpha Z        PSCENC =         3.82760131
  Ewald energy   TEWEN  =      3468.15398447
  -Hartree energ DENC   =     -9412.04390781
  -exchange      EXHF   =         0.00000000
  -V(xc)+E(xc)   XCENC  =        -3.74588364
  PAW double counting   =      5939.73619756    -5820.99873341
  entropy T*S    EENTRO =        -0.00000000
  eigenvalues    EBANDS =      -536.59511814
  atomic energy  EATOM  =      6223.57668875
  ---------------------------------------------------
  free energy    TOTEN  =      -138.08917090 eV

  energy without entropy =     -138.08917090  energy(sigma->0) =     -138.08917090


--------------------------------------------------------------------------------------------------------




--------------------------------------- Iteration      1(   4)  ---------------------------------------


    TRIAL :  cpu time      1.0416: real time      1.0419
    CORREC:  cpu time      0.0003: real time      0.0003
    --------------------------------------------
      LOOP:  cpu time      1.0453: real time      1.0459

 eigenvalue-minimisations  :    96
 total energy-change (2. order) :-0.1763478E+01  (-0.1763478E+01)
 number of electron      66.0000000 magnetization 
 augmentation part       66.0000000 magnetization 

 Free energy of the ion-electron system (eV)
  ---------------------------------------------------
  alpha Z        PSCENC =         3.82760131
  Ewald energy   TEWEN  =      3468.15398447
  -Hartree energ DENC   =     -9412.04390781
  -exchange      EXHF   =         0.00000000
  -V(xc)+E(xc)   XCENC  =        -3.74588364
  PAW double counting   =      5939.73619756    -5820.99873341
  entropy T*S    EENTRO =        -0.00000000
  eigenvalues    EBANDS =      -538.35859576
  atomic energy  EATOM  =      6223.57668875
  ---------------------------------------------------
  free energy    TOTEN  =      -139.85264852 eV

  energy without entropy =     -139.85264852  energy(sigma->0) =     -139.85264852


--------------------------------------------------------------------------------------------------------




--------------------------------------- Iteration      1(   5)  ---------------------------------------


    TRIAL :  cpu time      1.7644: real time      1.7650
    CORREC:  cpu time      0.0003: real time      0.0003
    CHARGE:  cpu time      0.2443: real time      0.2449
    --------------------------------------------
      LOOP:  cpu time      2.0124: real time      2.0139

 eigenvalue-minimisations  :   192
 total energy-change (2. order) :-0.1427636E-01  (-0.1427636E-01)
 number of electron      66.0000008 magnetization 
 augmentation part       30.8457525 magnetization 

 Free energy of the ion-electron system (eV)
  ---------------------------------------------------
  alpha Z        PSCENC =         3.82760131
  Ewald energy   TEWEN  =      3468.15398447
  -Hartree energ DENC   =     -9412.04390781
  -exchange      EXHF   =         0.00000000
  -V(xc)+E(xc)   XCENC  =        -3.74588364
  PAW double counting   =      5939.73619756    -5820.99873341
  entropy T*S    EENTRO =        -0.00000000
  eigenvalues    EBANDS =      -538.37287212
  atomic energy  EATOM  =      6223.57668875
  ---------------------------------------------------
  free energy    TOTEN  =      -139.86692487 eV

  energy without entropy =     -139.86692487  energy(sigma->0) =     -139.86692487


--------------------------------------------------------------------------------------------------------




--------------------------------------- Iteration      1(   6)  ---------------------------------------


    POTLOK:  cpu time      0.4333: real time      0.4333
    SETDIJ:  cpu time      0.6594: real time      0.6596
    TRIAL :  cpu time      0.9441: real time      0.9455
    CORREC:  cpu time      1.5867: real time      1.5872
    CHARGE:  cpu time      0.2412: real time      0.2412
    --------------------------------------------
      LOOP:  cpu time      3.8726: real time      3.8751

 eigenvalue-minimisations  :     0
 total energy-change (2. order) : 0.2489861E+02  (-0.3407264E+01)
 number of electron      66.0000008 magnetization 
 augmentation part       31.9610681 magnetization 

 Free energy of the ion-electron system (eV)
  ---------------------------------------------------
  alpha Z        PSCENC =         3.82760131
  Ewald energy   TEWEN  =      3468.15398447
  -Hartree energ DENC   =     -9364.56154979
  -exchange      EXHF   =         0.00000000
  -V(xc)+E(xc)   XCENC  =         8.78223215
  PAW double counting   =      6744.70446696    -6633.20045528
  entropy T*S    EENTRO =        -0.00000000
  eigenvalues    EBANDS =      -566.25128161
  atomic energy  EATOM  =      6223.57668875
  ---------------------------------------------------
  free energy    TOTEN  =      -114.96831303 eV

  energy without entropy =     -114.96831303  energy(sigma->0) =     -114.96831303


--------------------------------------------------------------------------------------------------------




--------------------------------------- Iteration      1(   7)  ---------------------------------------


    POTLOK:  cpu time      0.4311: real time      0.4311
    SETDIJ:  cpu time      0.6563: real time      0.6565
    TRIAL :  cpu time      0.9437: real time      0.9440
    CORREC:  cpu time      1.5843: real time      1.5846
    CHARGE:  cpu time      0.2406: real time      0.2409
    --------------------------------------------
      LOOP:  cpu time      3.8637: real time      3.8653

 eigenvalue-minimisations  :     0
 total energy-change (2. order) :-0.3378183E+01  (-0.3511074E+00)
 number of electron      66.0000008 magnetization 
 augmentation part       31.9805960 magnetization 

 Free energy of the ion-electron system (eV)
  ---------------------------------------------------
  alpha Z        PSCENC =         3.82760131
  Ewald energy   TEWEN  =      3468.15398447
  -Hartree energ DENC   =     -9475.03027420
  -exchange      EXHF   =         0.00000000
  -V(xc)+E(xc)   XCENC  =        12.10445892
  PAW double counting   =      6718.95911962    -6608.68933513
  entropy T*S    EENTRO =        -0.00000002
  eigenvalues    EBANDS =      -461.24874026
  atomic energy  EATOM  =      6223.57668875
  ---------------------------------------------------
  free energy    TOTEN  =      -118.34649652 eV

  energy without entropy =     -118.34649651  energy(sigma->0) =     -118.34649651


--------------------------------------------------------------------------------------------------------




--------------------------------------- Iteration      1(   8)  ---------------------------------------


    POTLOK:  cpu time      0.4295: real time      0.4296
    SETDIJ:  cpu time      0.6587: real time      0.6589
    TRIAL :  cpu time      0.9403: real time      0.9407
    CORREC:  cpu time      1.5815: real time      1.5818
    CHARGE:  cpu time      0.2410: real time      0.2412
    --------------------------------------------
      LOOP:  cpu time      3.8588: real time      3.8605

 eigenvalue-minimisations  :     0
 total energy-change (2. order) :-0.3494761E+00  (-0.8777797E-01)
 number of electron      66.0000008 magnetization 
 augmentation part       32.0023300 magnetization 

 Free energy of the ion-electron system (eV)
  ---------------------------------------------------
  alpha Z        PSCENC =         3.82760131
  Ewald energy   TEWEN  =      3468.15398447
  -Hartree energ DENC   =     -9435.98055041
  -exchange      EXHF   =         0.00000000
  -V(xc)+E(xc)   XCENC  =        11.34563455
  PAW double counting   =      6635.84389694    -6525.73655133
  entropy T*S    EENTRO =        -0.00000081
  eigenvalues    EBANDS =      -499.72667687
  atomic energy  EATOM  =      6223.57668875
  ---------------------------------------------------
  free energy    TOTEN  =      -118.69597260 eV

  energy without entropy =     -118.69597179  energy(sigma->0) =     -118.69597220


--------------------------------------------------------------------------------------------------------




--------------------------------------- Iteration      1(   9)  ---------------------------------------


    POTLOK:  cpu time      0.4328: real time      0.4328
    SETDIJ:  cpu time      0.6576: real time      0.6578
    TRIAL :  cpu time      0.9462: real time      0.9465
    CORREC:  cpu time      1.5851: real time      1.5854
    CHARGE:  cpu time      0.2418: real time      0.2418
    --------------------------------------------
      LOOP:  cpu time      3.8710: real time      3.8721

 eigenvalue-minimisations  :     0
 total energy-change (2. order) :-0.8770185E-01  (-0.2260685E-01)
 number of electron      66.0000008 magnetization 
 augmentation part       32.0212615 magnetization 

 Free energy of the ion-electron system (eV)
  ---------------------------------------------------
  alpha Z        PSCENC =         3.82760131
  Ewald energy   TEWEN  =      3468.15398447
  -Hartree energ DENC   =     -9434.39479373
  -exchange      EXHF   =         0.00000000
  -V(xc)+E(xc)   XCENC  =        11.24929897
  PAW double counting   =      6619.91924387    -6509.84274991
  entropy T*S    EENTRO =        -0.00000093
  eigenvalues    EBANDS =      -501.27294737
  atomic energy  EATOM  =      6223.57668875
  ---------------------------------------------------
  free energy    TOTEN  =      -118.78367445 eV

  energy without entropy =     -118.78367352  energy(sigma->0) =     -118.78367399


--------------------------------------------------------------------------------------------------------




--------------------------------------- Iteration      1(  10)  ---------------------------------------


    POTLOK:  cpu time      0.4341: real time      0.4343
    SETDIJ:  cpu time      0.6567: real time      0.6567
    TRIAL :  cpu time      0.9402: real time      0.9405
    CORREC:  cpu time      1.5844: real time      1.5849
    CHARGE:  cpu time      0.2402: real time      0.2402
    --------------------------------------------
      LOOP:  cpu time      3.8636: real time      3.8650

 eigenvalue-minimisations  :     0
 total energy-change (2. order) :-0.2262860E-01  (-0.8346337E-02)
 number of electron      66.0000008 magnetization 
 augmentation part       32.0118527 magnetization 

 Free energy of the ion-electron system (eV)
  ---------------------------------------------------
  alpha Z        PSCENC =         3.82760131
  Ewald energy   TEWEN  =      3468.15398447
  -Hartree energ DENC   =     -9437.94227571
  -exchange      EXHF   =         0.00000000
  -V(xc)+E(xc)   XCENC  =        11.32295277
  PAW double counting   =      6636.41882759    -6526.17275673
  entropy T*S    EENTRO =        -0.00000090
  eigenvalues    EBANDS =      -497.99132458
  atomic energy  EATOM  =      6223.57668875
  ---------------------------------------------------
  free energy    TOTEN  =      -118.80630306 eV

  energy without entropy =     -118.80630216  energy(sigma->0) =     -118.80630261


--------------------------------------------------------------------------------------------------------




--------------------------------------- Iteration      1(  11)  ---------------------------------------


    POTLOK:  cpu time      0.4317: real time      0.4320
    SETDIJ:  cpu time      0.6583: real time      0.6583
    TRIAL :  cpu time      0.9421: real time      0.9424
    CORREC:  cpu time      1.5852: real time      1.5857
    CHARGE:  cpu time      0.2413: real time      0.2413
    --------------------------------------------
      LOOP:  cpu time      3.8664: real time      3.8679

 eigenvalue-minimisations  :     0
 total energy-change (2. order) :-0.8346399E-02  (-0.2399797E-02)
 number of electron      66.0000008 magnetization 
 augmentation part       32.0174105 magnetization 

 Free energy of the ion-electron system (eV)
  ---------------------------------------------------
  alpha Z        PSCENC =         3.82760131
  Ewald energy   TEWEN  =      3468.15398447
  -Hartree energ DENC   =     -9434.05998419
  -exchange      EXHF   =         0.00000000
  -V(xc)+E(xc)   XCENC  =        11.28471897
  PAW double counting   =      6653.60147536    -6543.14960610
  entropy T*S    EENTRO =        -0.00000054
  eigenvalues    EBANDS =      -502.04952713
  atomic energy  EATOM  =      6223.57668875
  ---------------------------------------------------
  free energy    TOTEN  =      -118.81464946 eV

  energy without entropy =     -118.81464892  energy(sigma->0) =     -118.81464919


--------------------------------------------------------------------------------------------------------




--------------------------------------- Iteration      1(  12)  ---------------------------------------


    POTLOK:  cpu time      0.4336: real time      0.4339
    SETDIJ:  cpu time      0.6528: real time      0.6528
    TRIAL :  cpu time      0.9412: real time      0.9415
    CORREC:  cpu time      1.5840: real time      1.5845
    CHARGE:  cpu time      0.2410: real time      0.2410
    --------------------------------------------
      LOOP:  cpu time      3.8603: real time      3.8620

 eigenvalue-minimisations  :     0
 total energy-change (2. order) :-0.2411634E-02  (-0.4775560E-03)
 number of electron      66.0000008 magnetization 
 augmentation part       32.0181923 magnetization 

 Free energy of the ion-electron system (eV)
  ---------------------------------------------------
  alpha Z        PSCENC =         3.82760131
  Ewald energy   TEWEN  =      3468.15398447
  -Hartree energ DENC   =     -9435.31061168
  -exchange      EXHF   =         0.00000000
  -V(xc)+E(xc)   XCENC  =        11.31449736
  PAW double counting   =      6671.31967115    -6560.79065880
  entropy T*S    EENTRO =        -0.00000034
  eigenvalues    EBANDS =      -500.90823311
  atomic energy  EATOM  =      6223.57668875
  ---------------------------------------------------
  free energy    TOTEN  =      -118.81706109 eV

  energy without entropy =     -118.81706075  energy(sigma->0) =     -118.81706092


--------------------------------------------------------------------------------------------------------




--------------------------------------- Iteration      1(  13)  ---------------------------------------


    POTLOK:  cpu time      0.4343: real time      0.4343
    SETDIJ:  cpu time      0.6585: real time      0.6588
    TRIAL :  cpu time      0.9423: real time      0.9426
    CORREC:  cpu time      1.5822: real time      1.5828
    CHARGE:  cpu time      0.2421: real time      0.2421
    --------------------------------------------
      LOOP:  cpu time      3.8674: real time      3.8690

 eigenvalue-minimisations  :     0
 total energy-change (2. order) :-0.4835510E-03  (-0.7420707E-04)
 number of electron      66.0000008 magnetization 
 augmentation part       32.0203048 magnetization 

 Free energy of the ion-electron system (eV)
  ---------------------------------------------------
  alpha Z        PSCENC =         3.82760131
  Ewald energy   TEWEN  =      3468.15398447
  -Hartree energ DENC   =     -9435.22075121
  -exchange      EXHF   =         0.00000000
  -V(xc)+E(xc)   XCENC  =        11.30896795
  PAW double counting   =      6679.40057318    -6568.85263837
  entropy T*S    EENTRO =        -0.00000030
  eigenvalues    EBANDS =      -501.01197037
  atomic energy  EATOM  =      6223.57668875
  ---------------------------------------------------
  free energy    TOTEN  =      -118.81754464 eV

  energy without entropy =     -118.81754434  energy(sigma->0) =     -118.81754449


--------------------------------------------------------------------------------------------------------




--------------------------------------- Iteration      1(  14)  ---------------------------------------


    POTLOK:  cpu time      0.4339: real time      0.4339
    SETDIJ:  cpu time      0.6576: real time      0.6585
    TRIAL :  cpu time      0.9397: real time      0.9400
    CORREC:  cpu time      1.5827: real time      1.5830
    CHARGE:  cpu time      0.2403: real time      0.2406
    --------------------------------------------
      LOOP:  cpu time      3.8620: real time      3.8642

 eigenvalue-minimisations  :     0
 total energy-change (2. order) :-0.7394176E-04  (-0.1881457E-04)
 number of electron      66.0000008 magnetization 
 augmentation part       32.0203672 magnetization 

 Free energy of the ion-electron system (eV)
  ---------------------------------------------------
  alpha Z        PSCENC =         3.82760131
  Ewald energy   TEWEN  =      3468.15398447
  -Hartree energ DENC   =     -9435.42674707
  -exchange      EXHF   =         0.00000000
  -V(xc)+E(xc)   XCENC  =        11.31386962
  PAW double counting   =      6682.37498315    -6571.82864677
  entropy T*S    EENTRO =        -0.00000029
  eigenvalues    EBANDS =      -500.80935174
  atomic energy  EATOM  =      6223.57668875
  ---------------------------------------------------
  free energy    TOTEN  =      -118.81761858 eV

  energy without entropy =     -118.81761830  energy(sigma->0) =     -118.81761844


--------------------------------------------------------------------------------------------------------




--------------------------------------- Iteration      1(  15)  ---------------------------------------


    POTLOK:  cpu time      0.4318: real time      0.4318
    SETDIJ:  cpu time      0.6614: real time      0.6617
    TRIAL :  cpu time      0.9407: real time      0.9410
    CORREC:  cpu time      1.5866: real time      1.5869
    CHARGE:  cpu time      0.2412: real time      0.2415
    --------------------------------------------
      LOOP:  cpu time      3.8697: real time      3.8713

 eigenvalue-minimisations  :     0
 total energy-change (2. order) :-0.1869936E-04  (-0.4795649E-05)
 number of electron      66.0000008 magnetization 
 augmentation part       32.0200456 magnetization 

 Free energy of the ion-electron system (eV)
  ---------------------------------------------------
  alpha Z        PSCENC =         3.82760131
  Ewald energy   TEWEN  =      3468.15398447
  -Hartree energ DENC   =     -9435.42044639
  -exchange      EXHF   =         0.00000000
  -V(xc)+E(xc)   XCENC  =        11.31271523
  PAW double counting   =      6683.77947701    -6573.23336384
  entropy T*S    EENTRO =        -0.00000028
  eigenvalues    EBANDS =      -500.81429353
  atomic energy  EATOM  =      6223.57668875
  ---------------------------------------------------
  free energy    TOTEN  =      -118.81763728 eV

  energy without entropy =     -118.81763700  energy(sigma->0) =     -118.81763714


--------------------------------------------------------------------------------------------------------




--------------------------------------- Iteration      1(  16)  ---------------------------------------


    POTLOK:  cpu time      0.4307: real time      0.4307
    SETDIJ:  cpu time      0.6581: real time      0.6583
    TRIAL :  cpu time      0.9401: real time      0.9404
    CORREC:  cpu time      1.5816: real time      1.5829
    CHARGE:  cpu time      0.2413: real time      0.2413
    --------------------------------------------
      LOOP:  cpu time      3.8602: real time      3.8624

 eigenvalue-minimisations  :     0
 total energy-change (2. order) :-0.4870737E-05  (-0.1865758E-05)
 number of electron      66.0000008 magnetization 
 augmentation part       32.0201846 magnetization 

 Free energy of the ion-electron system (eV)
  ---------------------------------------------------
  alpha Z        PSCENC =         3.82760131
  Ewald energy   TEWEN  =      3468.15398447
  -Hartree energ DENC   =     -9435.37165150
  -exchange      EXHF   =         0.00000000
  -V(xc)+E(xc)   XCENC  =        11.31094719
  PAW double counting   =      6684.74713168    -6574.20066595
  entropy T*S    EENTRO =        -0.00000029
  eigenvalues    EBANDS =      -500.86167782
  atomic energy  EATOM  =      6223.57668875
  ---------------------------------------------------
  free energy    TOTEN  =      -118.81764215 eV

  energy without entropy =     -118.81764187  energy(sigma->0) =     -118.81764201


--------------------------------------------------------------------------------------------------------




--------------------------------------- Iteration      1(  17)  ---------------------------------------


    POTLOK:  cpu time      0.4307: real time      0.4310
    SETDIJ:  cpu time      0.6635: real time      0.6638
    TRIAL :  cpu time      0.9425: real time      0.9426
    CORREC:  cpu time      1.5898: real time      1.5904
    CHARGE:  cpu time      0.2393: real time      0.2393
    --------------------------------------------
      LOOP:  cpu time      3.8737: real time      3.8754

 eigenvalue-minimisations  :     0
 total energy-change (2. order) :-0.1922836E-05  (-0.5722630E-06)
 number of electron      66.0000008 magnetization 
 augmentation part       32.0203173 magnetization 

 Free energy of the ion-electron system (eV)
  ---------------------------------------------------
  alpha Z        PSCENC =         3.82760131
  Ewald energy   TEWEN  =      3468.15398447
  -Hartree energ DENC   =     -9435.38579751
  -exchange      EXHF   =         0.00000000
  -V(xc)+E(xc)   XCENC  =        11.31133673
  PAW double counting   =      6685.72371483    -6575.17746551
  entropy T*S    EENTRO =        -0.00000029
  eigenvalues    EBANDS =      -500.84770686
  atomic energy  EATOM  =      6223.57668875
  ---------------------------------------------------
  free energy    TOTEN  =      -118.81764408 eV

  energy without entropy =     -118.81764379  energy(sigma->0) =     -118.81764393


--------------------------------------------------------------------------------------------------------




--------------------------------------- Iteration      1(  18)  ---------------------------------------


    POTLOK:  cpu time      0.4493: real time      0.4495
    SETDIJ:  cpu time      0.6371: real time      0.6371
    TRIAL :  cpu time      0.9401: real time      0.9403
    CORREC:  cpu time      1.5852: real time      1.5859
    EDDIAG:  cpu time      0.2486: real time      0.2487
    CHARGE:  cpu time      0.2407: real time      0.2407
    --------------------------------------------
      LOOP:  cpu time      4.1091: real time      4.1106

 eigenvalue-minimisations  :     0
 total energy-change (2. order) :-0.5682405E-06  (-0.1771989E-06)
 number of electron      66.0000008 magnetization 
 augmentation part       32.0203365 magnetization 

 Free energy of the ion-electron system (eV)
  ---------------------------------------------------
  alpha Z        PSCENC =         3.82760131
  Ewald energy   TEWEN  =      3468.15398447
  -Hartree energ DENC   =     -9435.40123678
  -exchange      EXHF   =         0.00000000
  -V(xc)+E(xc)   XCENC  =        11.31172827
  PAW double counting   =      6686.47310792    -6575.92708624
  entropy T*S    EENTRO =        -0.00000029
  eigenvalues    EBANDS =      -500.83243207
  atomic energy  EATOM  =      6223.57668875
  ---------------------------------------------------
  free energy    TOTEN  =      -118.81764465 eV

  energy without entropy =     -118.81764436  energy(sigma->0) =     -118.81764450


--------------------------------------------------------------------------------------------------------


  average scaling for gradient   1.1804


 average (electrostatic) potential at core
  the test charge radii are     1.1249
  (the norm of the test charge is              1.0000)
       1 -87.5864       2 -87.1683       3 -87.1645       4 -87.2299       5 -87.5828
       6 -87.2299



 E-fermi :  -3.8257     XC(G=0):  -0.3393     alpha+bet : -0.1722

 Fermi energy:        -3.8257436854

 k-point     1 :       0.0000    0.0000    0.0000
  band No.  band energies     occupation 
      1      -9.2120      2.00000
      2      -9.0968      2.00000
      3      -8.9062      2.00000
      4      -8.8334      2.00000
      5      -8.6063      2.00000
      6      -8.4817      2.00000
      7      -8.4738      2.00000
      8      -8.4343      2.00000
      9      -8.3592      2.00000
     10      -8.2079      2.00000
     11      -8.1861      2.00000
     12      -8.0303      2.00000
     13      -7.9740      2.00000
     14      -7.9134      2.00000
     15      -7.7869      2.00000
     16      -7.6710      2.00000
     17      -7.5847      2.00000
     18      -7.3803      2.00000
     19      -7.3639      2.00000
     20      -7.3536      2.00000
     21      -7.3186      2.00000
     22      -7.3097      2.00000
     23      -7.1295      2.00000
     24      -7.1230      2.00000
     25      -7.1175      2.00000
     26      -7.0021      2.00000
     27      -6.9971      2.00000
     28      -6.9052      2.00000
     29      -6.8981      2.00000
     30      -6.6200      2.00000
     31      -6.5440      2.00000
     32      -5.5961      2.00000
     33      -4.0003      2.00000
     34      -3.6513      0.00000
     35      -2.6100      0.00000
     36      -1.7556      0.00000
     37      -1.5951      0.00000
     38      -1.2021      0.00000
     39      -0.7598      0.00000
     40      -0.7210      0.00000
     41       0.0384      0.00000
     42       0.0924      0.00000
     43       0.1833      0.00000
     44       0.2304      0.00000
     45       0.4838      0.00000
     46       0.5278      0.00000
     47       0.5760      0.00000
     48       0.6918      0.00000


--------------------------------------------------------------------------------------------------------


 soft charge-density along one line, spin component           1
         0         1         2         3         4         5         6         7         8         9
 total charge-density along one line

 pseudopotential strength for first ion, spin component:           1
-10.972   0.004   0.004   0.001   0.000 -10.942   0.004   0.004
  0.004 -10.978   0.001  -0.004   0.000   0.004 -10.947   0.001
  0.004   0.001 -10.964   0.003  -0.016   0.004   0.001 -10.935
  0.001  -0.004   0.003 -10.954   0.004   0.001  -0.004   0.003
  0.000   0.000  -0.016   0.004 -10.976   0.000   0.000  -0.016
-10.942   0.004   0.004   0.001   0.000 -10.889   0.004   0.003
  0.004 -10.947   0.001  -0.004   0.000   0.004 -10.893   0.001
  0.004   0.001 -10.935   0.003  -0.016   0.003   0.001 -10.882
  0.001  -0.004   0.003 -10.925   0.004   0.001  -0.004   0.003
  0.000   0.000  -0.016   0.004 -10.946   0.000   0.000  -0.015
  0.005  -0.003  -0.002  -0.009  -0.013   0.005  -0.003  -0.001
  0.009  -0.004  -0.002  -0.015  -0.022   0.008  -0.004  -0.002
 -0.007   0.007   0.018  -0.001   0.030  -0.006   0.007   0.017
 -0.001  -0.030   0.009  -0.007   0.000  -0.001  -0.029   0.008
 -0.031  -0.001   0.005   0.007  -0.008  -0.029  -0.001   0.005
 -0.008   0.007   0.022  -0.001   0.037  -0.007   0.007   0.020
 -0.001  -0.034   0.011  -0.008   0.001  -0.001  -0.032   0.010
 -0.036  -0.001   0.005   0.008  -0.009  -0.034  -0.001   0.005
 total augmentation occupancy for first ion, spin component:           1
  2.661  -0.116  -0.001  -0.095  -0.030  -0.529   0.130   0.010   0.109   0.036  -0.336   0.098  -0.038   0.046  -0.047  -0.002
 -0.116   2.782  -0.070   0.135   0.018   0.130  -0.673   0.103  -0.165   0.001   0.198  -0.068   0.024  -0.096   0.043   0.005
 -0.001  -0.070   2.585  -0.035   0.094   0.010   0.103  -0.504   0.082  -0.189   0.126  -0.034   0.035   0.046  -0.014   0.009
 -0.095   0.135  -0.035   2.604   0.026   0.109  -0.165   0.082  -0.474   0.011   0.520  -0.140   0.039  -0.071   0.046  -0.004
 -0.030   0.018   0.094   0.026   2.715   0.036   0.002  -0.189   0.011  -0.671   0.834  -0.220   0.105   0.001   0.004   0.012
 -0.529   0.130   0.010   0.109   0.036   0.391  -0.142  -0.018  -0.122  -0.041   0.284  -0.081   0.048  -0.044   0.074  -0.005
  0.130  -0.673   0.103  -0.165   0.002  -0.142   0.555  -0.132   0.192  -0.019  -0.168   0.059  -0.028   0.124  -0.042   0.002
  0.010   0.103  -0.504   0.082  -0.189  -0.018  -0.132   0.408  -0.122   0.273  -0.102   0.022  -0.064  -0.069   0.014   0.006
  0.109  -0.165   0.082  -0.474   0.011  -0.122   0.192  -0.122   0.335  -0.041  -0.447   0.119  -0.038   0.087  -0.060   0.004
  0.036   0.001  -0.189   0.011  -0.671  -0.041  -0.019   0.273  -0.041   0.611  -0.705   0.175  -0.155  -0.010   0.007   0.015
 -0.336   0.198   0.126   0.520   0.834   0.284  -0.168  -0.102  -0.447  -0.705   2.741  -0.616   0.311  -0.117   0.099  -0.030
  0.098  -0.068  -0.034  -0.140  -0.220  -0.081   0.059   0.022   0.119   0.175  -0.616   0.143  -0.075   0.034  -0.027   0.007
 -0.038   0.024   0.035   0.039   0.105   0.048  -0.028  -0.064  -0.038  -0.155   0.311  -0.075   0.055  -0.010   0.010  -0.006
  0.046  -0.096   0.046  -0.071   0.001  -0.044   0.124  -0.069   0.087  -0.010  -0.117   0.034  -0.010   0.046  -0.020   0.001
 -0.047   0.043  -0.014   0.046   0.004   0.074  -0.042   0.014  -0.060   0.007   0.099  -0.027   0.010  -0.020   0.023  -0.001
 -0.002   0.005   0.009  -0.004   0.012  -0.005   0.002   0.006   0.004   0.015  -0.030   0.007  -0.006   0.001  -0.001   0.001
 -0.003  -0.019   0.004  -0.001   0.000   0.004  -0.008   0.005  -0.007   0.000   0.012  -0.003   0.001  -0.004   0.001  -0.000
 -0.022  -0.003   0.005   0.003  -0.008  -0.004   0.003  -0.001   0.005   0.001  -0.010   0.003  -0.001   0.001  -0.002   0.000


------------------------ aborting loop because EDIFF is reached ----------------------------------------


    FORLOC:  cpu time      0.0051: real time      0.0051
    FORNL :  cpu time      0.1032: real time      0.1035
    STRESS:  cpu time      3.3143: real time      3.3156
    FORCOR:  cpu time      0.3433: real time      0.3434
    OFIELD:  cpu time      0.0008: real time      0.0008

  FORCE on cell =-STRESS in cart. coord.  units (eV):
  Direction    XX          YY          ZZ          XY          YZ          ZX
  --------------------------------------------------------------------------------------
  Alpha Z     3.82760     3.82760     3.82760
  Ewald    -812.54606  3549.00178   731.69633   559.15848   -62.01969 -1157.53399
  Hartree  1538.37267  5111.50143  2785.52594   447.70570   -46.54322  -924.57449
  E(xc)    -381.97346  -380.99784  -381.46244     0.13897    -0.00539    -0.39445
  Local   -1692.64061 -9597.75058 -4477.03804 -1002.56683   107.52940  2076.35572
  n-local   -64.99692   -69.32099   -64.84648    -0.74778     0.45967     0.02701
  augment   577.28843   570.34915   574.86158    -0.91986     0.01901     1.89473
  Kinetic   832.46690   812.31598   826.92322    -2.89975     0.59500     4.47484
  Fock        0.00000     0.00000     0.00000     0.00000     0.00000     0.00000
  -------------------------------------------------------------------------------------
  Total      -0.20144    -1.07347    -0.51230    -0.13108     0.03478     0.24937
  in kB      -0.04034    -0.21499    -0.10260    -0.02625     0.00696     0.04994
  external pressure =       -0.12 kB  Pullay stress =        0.00 kB


 VOLUME and BASIS-vectors are now :
 -----------------------------------------------------------------------------
  energy-cutoff  :      520.00
  volume of cell :     8000.00
      direct lattice vectors                 reciprocal lattice vectors
    20.000000000  0.000000000  0.000000000     0.050000000  0.000000000  0.000000000
     0.000000000 20.000000000  0.000000000     0.000000000  0.050000000  0.000000000
     0.000000000  0.000000000 20.000000000     0.000000000  0.000000000  0.050000000

  length of vectors
    20.000000000 20.000000000 20.000000000     0.050000000  0.050000000  0.050000000


 FORCES acting on ions:
    Electron-Ion                     Ewald-Force                    Non-Local-Force
 -----------------------------------------------------------------------------------------------
   0.172E+03 0.510E+03 -.212E+03   -.170E+03 -.503E+03 0.209E+03   -.205E+01 -.733E+01 0.224E+01
   -.201E+03 -.602E+02 0.369E+03   0.202E+03 0.604E+02 -.370E+03   -.330E+00 -.223E+00 0.509E+00
   0.202E+03 0.608E+02 -.370E+03   -.202E+03 -.610E+02 0.371E+03   0.318E+00 0.172E+00 -.499E+00
   -.169E+03 0.370E+03 0.393E+03   0.168E+03 -.366E+03 -.390E+03   0.128E+01 -.407E+01 -.320E+01
   -.173E+03 -.509E+03 0.212E+03   0.171E+03 0.502E+03 -.210E+03   0.204E+01 0.733E+01 -.223E+01
   0.169E+03 -.371E+03 -.393E+03   -.167E+03 0.367E+03 0.390E+03   -.127E+01 0.412E+01 0.319E+01
 -----------------------------------------------------------------------------------------------
   0.742E-02 0.414E-02 -.127E-01   0.284E-13 0.000E+00 -.114E-12   -.977E-02 -.797E-02 0.128E-01


 POSITION                                       TOTAL-FORCE (eV/Angst)
 -----------------------------------------------------------------------------------
      9.18313      6.88882     10.86875         0.047427      0.122257     -0.058864
     10.63426     10.52739      8.91255        -0.032108      0.007805      0.064910
      9.36217      9.47298     11.09359         0.029063     -0.009438     -0.061911
     10.45351      7.91380      8.71209        -0.037331      0.069480      0.099959
     10.81850     13.11226      9.12774        -0.045804     -0.122181      0.057917
      9.54706     12.08638     11.28548         0.038754     -0.067923     -0.102011
 -----------------------------------------------------------------------------------
    total drift:                               -0.002349     -0.003829      0.000128


--------------------------------------------------------------------------------------------------------



  FREE ENERGIE OF THE ION-ELECTRON SYSTEM (eV)
  ---------------------------------------------------
  free  energy   TOTEN  =      -118.81764465 eV

  energy  without entropy=     -118.81764436  energy(sigma->0) =     -118.81764450



--------------------------------------------------------------------------------------------------------


    POTLOK:  cpu time      1.1018: real time      1.1020


--------------------------------------------------------------------------------------------------------


     LOOP+:  cpu time     64.7965: real time     64.8294
    4ORBIT:  cpu time      0.0000: real time      0.0000

 total amount of memory used by VASP MPI-rank0   137367. kBytes
=======================================================================

   base      :      30000. kBytes
   nonlr-proj:       1890. kBytes
   fftplans  :      31079. kBytes
   grid      :      71778. kBytes
   one-center:         31. kBytes
   wavefun   :       2589. kBytes

  
  
 General timing and accounting informations for this job:
 ========================================================
  
                  Total CPU time used (sec):       77.088
                            User time (sec):       75.968
                          System time (sec):        1.119
                         Elapsed time (sec):       78.419
  
                   Maximum memory used (kb):      397732.
                   Average memory used (kb):          N/A
  
                          Minor page faults:        26341
                          Major page faults:            0
                 Voluntary context switches:         5770
