 vasp.6.4.1 05Apr23 (build May 06 2023 19:47:20) complex                        
  
 executed on             LinuxIFC date 2023.05.08  10:33:12
 running  256 mpi-ranks, with    1 threads/rank, on   16 nodes
 distrk:  each k-point on  256 cores,    1 groups
 distr:  one band on NCORE=   4 cores,   64 groups


--------------------------------------------------------------------------------------------------------


 INCAR:
   SYSTEM = MgO-rocksalt
   ISMEAR = 0
   SIGMA = 0.05
   EDIFF = 1E-4
   ALGO = ALL
   ISTART = 0
   IBRION = -1
   NSW = 0
   ISYM = 3
   LHFCALC = .TRUE.
   GGA = PE
   IVDW = 13
   VDW_S8 = 1.2007
   VDW_A1 = 0.4009
   VDW_A2 = 5.0293
   ENCUT = 520
   PREC = Normal
   LASPH = .TRUE.
   LREAL = Auto
   ISPIN = 1
   NELM = 200
   NELMIN = 8
   NCORE = 4
   KPAR = 1
   LWAVE = .FALSE.
   LCHARG = .FALSE.

 POTCAR:    PAW_PBE Au 04Oct2007                  
 POTCAR:    PAW_PBE Au 04Oct2007                  
   SHA256 =  d0044ae04e2bdce24051b198fc5c053d722a5bc6fe3c3b100514a13fc5d2db88 Au/POTCAR             
   COPYR  = (c) Copyright 04Oct2007 Georg Kresse                                                    
   COPYR  = This file is part of the software VASP. Any use, copying, and all other rights are regul
   COPYR  = If you do not have a valid VASP license, you may not use, copy or distribute this file. 
   VRHFIN =Au: s1d10                                                                                
   LEXCH  = PE                                                                                      
   EATOM  =   926.0867 eV,   68.0654 Ry                                                             
                                                                                                    
   TITEL  = PAW_PBE Au 04Oct2007                                                                    
   LULTRA =        F    use ultrasoft PP ?                                                          
   IUNSCR =        1    unscreen: 0-lin 1-nonlin 2-no                                               
   RPACOR =    2.330    partial core radius                                                         
   POMASS =  196.966; ZVAL   =   11.000    mass and valenz                                          
   RCORE  =    2.500    outmost cutoff radius                                                       
   RWIGS  =    2.840; RWIGS  =    1.503    wigner-seitz radius (au A)                               
   ENMAX  =  229.943; ENMIN  =  172.457 eV                                                          
   ICORE  =        3    local potential                                                             
   LCOR   =        T    correct aug charges                                                         
   LPAW   =        T    paw PP                                                                      
   EAUG   =  356.670                                                                                
   DEXC   =    0.000                                                                                
   RMAX   =    2.562    core radius for proj-oper                                                   
   RAUG   =    1.300    factor for augmentation sphere                                              
   RDEP   =    2.598    radius for radial grids                                                     
   RDEPT  =    2.193    core radius for aug-charge                                                  
                                                                                                    
   Atomic configuration                                                                             
   16 entries                                                                                       
     n  l   j            E        occ.                                                              
     1  0  0.50    -80748.5001   2.0000                                                             
     2  0  0.50    -14244.7466   2.0000                                                             
     2  1  1.50    -12310.9591   6.0000                                                             
     3  0  0.50     -3362.1768   2.0000                                                             
     3  1  1.50     -2801.5463   6.0000                                                             
     3  2  2.50     -2203.8206  10.0000                                                             
     4  0  0.50      -729.8168   2.0000                                                             
     4  1  1.50      -546.0527   6.0000                                                             
     4  2  2.50      -325.7302  10.0000                                                             
     4  3  3.50       -81.1472  14.0000                                                             
     5  0  0.50      -108.3201   2.0000                                                             
     5  1  1.50       -59.7479   6.0000                                                             
     5  2  2.50        -6.8783  10.0000                                                             
     6  0  0.50        -5.7602   1.0000                                                             
     6  1  1.50        -6.8029   0.0000                                                             
     5  3  2.50        -1.3606   0.0000                                                             
   Description                                                                                      
     l       E           TYP  RCUT    TYP  RCUT                                                     
     2     -6.8782861     23  2.500                                                                 
     2     -8.2388687     23  2.500                                                                 
     0     -5.7601759     23  2.500                                                                 
     0     -0.8493231     23  2.500                                                                 
     1     -2.7211652     23  2.500                                                                 
     1     27.2116520     23  2.500                                                                 
     3     -1.3605826     23  2.500                                                                 
  local pseudopotential read in
  partial core-charges read in
  partial kinetic energy density read in
  atomic valenz-charges read in
  non local Contribution for L=           2  read in
    real space projection operators read in
  non local Contribution for L=           2  read in
    real space projection operators read in
  non local Contribution for L=           0  read in
    real space projection operators read in
  non local Contribution for L=           0  read in
    real space projection operators read in
  non local Contribution for L=           1  read in
    real space projection operators read in
  non local Contribution for L=           1  read in
    real space projection operators read in
    PAW grid and wavefunctions read in
 
   number of l-projection  operators is LMAX  =           6
   number of lm-projection operators is LMMAX =          18
 
 Optimization of the real space projectors (new method)

 maximal supplied QI-value         = 15.12
 optimisation between [QCUT,QGAM] = [ 11.64, 23.28] = [ 37.95,151.78] Ry 
 Optimized for a Real-space Cutoff    1.36 Angstroem

   l    n(q)    QCUT    max X(q) W(low)/X(q) W(high)/X(q)  e(spline) 
   2      9    11.641    60.898    0.44E-03    0.10E-02    0.32E-06
   2      9    11.641    58.894    0.45E-03    0.11E-02    0.32E-06
   0      9    11.641   109.617    0.19E-03    0.78E-04    0.11E-06
   0      9    11.641    75.026    0.19E-03    0.76E-04    0.10E-06
   1      9    11.641    16.344    0.43E-03    0.28E-03    0.32E-06
   1      9    11.641    10.160    0.36E-03    0.22E-03    0.26E-06
  PAW_PBE Au 04Oct2007                  :
 energy of atom  1       EATOM= -926.0867
 kinetic energy error for atom=    0.0034 (will be added to EATOM!!)
 
 
 POSCAR: Mg  O
  positions in direct lattice
  No initial velocities read in
 -----------------------------------------------------------------------------
|                                                                             |
|           W    W    AA    RRRRR   N    N  II  N    N   GGGG   !!!           |
|           W    W   A  A   R    R  NN   N  II  NN   N  G    G  !!!           |
|           W    W  A    A  R    R  N N  N  II  N N  N  G       !!!           |
|           W WW W  AAAAAA  RRRRR   N  N N  II  N  N N  G  GGG   !            |
|           WW  WW  A    A  R   R   N   NN  II  N   NN  G    G                |
|           W    W  A    A  R    R  N    N  II  N    N   GGGG   !!!           |
|                                                                             |
|     Specifying the vdW parameters                                           |
|     VDW_S8 = 1.201                                                          |
|     VDW_A1 = 0.401                                                          |
|     VDW_A2 = 5.029                                                          |
|     in the INCAR file will overwrite the defaults for pbe0. Please make     |
|     sure that is what you intended.                                         |
|                                                                             |
 -----------------------------------------------------------------------------

 exchange correlation table for  LEXCH =        8
   RHO(1)=    0.500       N(1)  =     2000
   RHO(2)=  100.500       N(2)  =     4000
 


--------------------------------------------------------------------------------------------------------


 ion  position               nearest neighbor table
   1  0.431  0.227  0.583-   2 2.73   5 2.74  11 2.75
   2  0.559  0.237  0.590-   3 2.65   1 2.73  12 2.78  11 2.83   6 2.87   5 2.95
   3  0.683  0.252  0.593-   2 2.65   4 2.67  12 2.79   6 2.82  13 2.87   7 2.91
   4  0.809  0.260  0.596-   3 2.67   7 2.72  13 2.76
   5  0.476  0.348  0.587-   8 2.70   1 2.74  14 2.75  11 2.81   6 2.86   2 2.95
   6  0.610  0.363  0.590-   3 2.82   9 2.82   8 2.86   5 2.86   2 2.87  15 2.93   7 2.93  14 2.96
                            12 2.99
   7  0.748  0.373  0.593-   9 2.67   4 2.72  15 2.80  13 2.87   3 2.91   6 2.93
   8  0.524  0.467  0.585-   5 2.70  10 2.76  14 2.76  16 2.84   6 2.86   9 3.28
   9  0.678  0.478  0.587-   7 2.67  10 2.73  15 2.77   6 2.82  16 2.89   8 3.28
  10  0.595  0.576  0.580-  16 2.68   9 2.73   8 2.76
  11  0.480  0.269  0.662-  17 2.70   1 2.75   5 2.81  12 2.83   2 2.83  14 2.91
  12  0.613  0.277  0.669-  17 2.75  18 2.76   2 2.78   3 2.79  11 2.83  13 2.83   6 2.99  14 3.17
                            15 3.18
  13  0.745  0.297  0.672-  18 2.67   4 2.76  15 2.82  12 2.83   7 2.87   3 2.87
  14  0.525  0.399  0.664-   5 2.75  19 2.75  17 2.76   8 2.76  16 2.86  11 2.91   6 2.96  12 3.17
                            15 3.26
  15  0.679  0.413  0.667-   9 2.77  19 2.77  18 2.78   7 2.80  16 2.81  13 2.82   6 2.93  12 3.18
                            14 3.26
  16  0.595  0.515  0.658-  10 2.68  19 2.70  15 2.81   8 2.84  14 2.86   9 2.89
  17  0.533  0.318  0.736-  11 2.70  20 2.70  12 2.75  14 2.76  18 2.98  19 3.01
  18  0.673  0.333  0.741-  20 2.67  13 2.67  12 2.76  15 2.78  19 2.91  17 2.98
  19  0.595  0.446  0.734-  16 2.70  20 2.72  14 2.75  15 2.77  18 2.91  17 3.01
  20  0.595  0.368  0.806-  18 2.67  17 2.70  19 2.72
 
  LATTYP: Found a simple tetragonal cell.
 ALAT       =    21.1388521970
 C/A-ratio  =     1.4191877459
  
  Lattice vectors:
  
 A1 = (  21.1388521970,   0.0000000000,   0.0000000000)
 A2 = (   0.0000000000,  21.1388521970,   0.0000000000)
 A3 = (   0.0000000000,   0.0000000000,  30.0000000000)


Analysis of symmetry for initial positions (statically):
=====================================================================
 Subroutine PRICEL returns:
 Original cell was already a primitive cell.
 

 Routine SETGRP: Setting up the symmetry group for a 
 simple tetragonal supercell.


 Subroutine GETGRP returns: Found  1 space group operations
 (whereof  1 operations were pure point group operations)
 out of a pool of 16 trial point group operations.


The static configuration has the point symmetry C_1 .


Analysis of symmetry for dynamics (positions and initial velocities):
=====================================================================
 Subroutine PRICEL returns:
 Original cell was already a primitive cell.
 

 Routine SETGRP: Setting up the symmetry group for a 
 simple tetragonal supercell.


 Subroutine GETGRP returns: Found  1 space group operations
 (whereof  1 operations were pure point group operations)
 out of a pool of 16 trial point group operations.


The dynamic configuration has the point symmetry C_1 .


Analysis of constrained symmetry for selective dynamics:
=====================================================================
 Subroutine PRICEL returns:
 Original cell was already a primitive cell.
 

 Routine SETGRP: Setting up the symmetry group for a 
 simple tetragonal supercell.


 Subroutine GETGRP returns: Found  1 space group operations
 (whereof  1 operations were pure point group operations)
 out of a pool of 16 trial point group operations.


The constrained configuration has the point symmetry C_1 .


 Subroutine INISYM returns: Found  1 space group operations
 (whereof  1 operations are pure point group operations),
 and found     1 'primitive' translations


----------------------------------------------------------------------------------------

                                     Primitive cell                                     

  volume of cell :   13405.5322

  direct lattice vectors                    reciprocal lattice vectors
    21.138852197  0.000000000  0.000000000     0.047306258  0.000000000  0.000000000
     0.000000000 21.138852197  0.000000000     0.000000000  0.047306258  0.000000000
     0.000000000  0.000000000 30.000000000     0.000000000  0.000000000  0.033333333

  length of vectors
    21.138852197 21.138852197 30.000000000     0.047306258  0.047306258  0.033333333

  position of ions in fractional coordinates (direct lattice)
     0.430802509  0.226721605  0.582680199
     0.559114854  0.236827040  0.589635708
     0.683383514  0.251582691  0.593121479
     0.809351285  0.259595532  0.596321944
     0.475567002  0.348340382  0.587210262
     0.610058560  0.362830825  0.589797642
     0.748479570  0.372673098  0.592725866
     0.523622431  0.466514583  0.585325459
     0.678342135  0.477530446  0.586674604
     0.594965477  0.575656015  0.579812068
     0.479531205  0.268834228  0.662202631
     0.612663710  0.277365968  0.669387074
     0.745074554  0.297147586  0.672032451
     0.525223985  0.398906808  0.664120580
     0.678677097  0.412703608  0.666982349
     0.594592074  0.514935576  0.658271293
     0.533001466  0.318091748  0.736009581
     0.673111120  0.333223887  0.740814330
     0.594950493  0.446321034  0.734104940
     0.594804595  0.368188513  0.806220274

  ion indices of the primitive-cell ions
   primitive index   ion index
                 1           1
                 2           2
                 3           3
                 4           4
                 5           5
                 6           6
                 7           7
                 8           8
                 9           9
                10          10
                11          11
                12          12
                13          13
                14          14
                15          15
                16          16
                17          17
                18          18
                19          19
                20          20

----------------------------------------------------------------------------------------

 
 
 KPOINTS: KPOINTS created by Atomic Simulation Env

Automatic generation of k-mesh.
 Grid dimensions read from file:
 generate k-points for:    1    1    1

 Generating k-lattice:

  Cartesian coordinates                     Fractional coordinates (reciprocal lattice)
     0.047306258  0.000000000  0.000000000     1.000000000  0.000000000  0.000000000
     0.000000000  0.047306258  0.000000000     0.000000000  1.000000000  0.000000000
     0.000000000  0.000000000  0.033333333     0.000000000  0.000000000  1.000000000

  Length of vectors
     0.047306258  0.047306258  0.033333333

  Shift w.r.t. Gamma in fractional coordinates (k-lattice)
     0.000000000  0.000000000  0.000000000

 
 Subroutine IBZKPT returns following result:
 ===========================================
 
 Found      1 irreducible k-points:
 
 Following reciprocal coordinates:
            Coordinates               Weight
  0.000000  0.000000  0.000000      1.000000
 
 Following cartesian coordinates:
            Coordinates               Weight
  0.000000  0.000000  0.000000      1.000000
 
 
 Subroutine IBZKPT_HF returns following result:
 ==============================================
 
 Found      1 k-points in 1st BZ
 the following      1 k-points will be used (e.g. in the exchange kernel)
 Following reciprocal coordinates:   # in IRBZ
  0.000000  0.000000  0.000000    1.00000000   1 t-inv F


--------------------------------------------------------------------------------------------------------




 Dimension of arrays:
   k-points           NKPTS =      1   k-points in BZ     NKDIM =      1   number of bands    NBANDS=    192
   number of dos      NEDOS =    301   number of ions     NIONS =     20
   non local maximal  LDIM  =      6   non local SUM 2l+1 LMDIM =     18
   total plane-waves  NPLWV = ******
   max r-space proj   IRMAX =   1963   max aug-charges    IRDMAX=  11234
   dimension x,y,z NGX =   120 NGY =  120 NGZ =  168
   dimension x,y,z NGXF=   240 NGYF=  240 NGZF=  336
   support grid    NGXF=   240 NGYF=  240 NGZF=  336
   ions per type =              20
   NGX,Y,Z   is equivalent  to a cutoff of   9.44,  9.44,  9.31 a.u.
   NGXF,Y,Z  is equivalent  to a cutoff of  18.87, 18.87, 18.62 a.u.

 SYSTEM =  MgO-rocksalt                            
 POSCAR =  Mg  O                                   

 Startparameter for this run:
   NWRITE =      2    write-flag & timer
   PREC   = normal    normal or accurate (medium, high low for compatibility)
   ISTART =      0    job   : 0-new  1-cont  2-samecut
   ICHARG =      2    charge: 1-file 2-atom 10-const
   ISPIN  =      1    spin polarized calculation?
   LNONCOLLINEAR =      F non collinear calculations
   LSORBIT =      F    spin-orbit coupling
   INIWAV =      1    electr: 0-lowe 1-rand  2-diag
   LASPH  =      T    aspherical Exc in radial PAW
 Electronic Relaxation 1
   ENCUT  =  520.0 eV  38.22 Ry    6.18 a.u.  39.30 39.30 55.78*2*pi/ulx,y,z
   ENINI  =  520.0     initial cutoff
   ENAUG  =  356.7 eV  augmentation charge cutoff
   NELM   =    200;   NELMIN=  8; NELMDL= -5     # of ELM steps 
   EDIFF  = 0.1E-03   stopping-criterion for ELM
   LREAL  =      T    real-space projection
   NLSPLINE    = F    spline interpolate recip. space projectors
   LCOMPAT=      F    compatible to vasp.4.4
   GGA_COMPAT  = T    GGA compatible to vasp.4.4-vasp.4.6
   LMAXPAW     = -100 max onsite density
   LMAXMIX     =    2 max onsite mixed and CHGCAR
   VOSKOWN=      0    Vosko Wilk Nusair interpolation
   ROPT   =   -0.00050
 Ionic relaxation
   EDIFFG = 0.1E-02   stopping-criterion for IOM
   NSW    =      0    number of steps for IOM
   NBLOCK =      1;   KBLOCK =      1    inner block; outer block 
   IBRION =     -1    ionic relax: 0-MD 1-quasi-New 2-CG
   NFREE  =      0    steps in history (QN), initial steepest desc. (CG)
   ISIF   =      0    stress and relaxation
   IWAVPR =     10    prediction:  0-non 1-charg 2-wave 3-comb
   ISYM   =      3    0-nonsym 1-usesym 2-fastsym
   LCORR  =      T    Harris-Foulkes like correction to forces

   POTIM  = 0.5000    time-step for ionic-motion
   TEIN   =    0.0    initial temperature
   TEBEG  =    0.0;   TEEND  =   0.0 temperature during run
   SMASS  =  -3.00    Nose mass-parameter (am)
   estimated Nose-frequenzy (Omega)   =  0.10E-29 period in steps = 0.13E+47 mass=  -0.102E-25a.u.
   SCALEE = 1.0000    scale energy and forces
   NPACO  =    256;   APACO  = 10.0  distance and # of slots for P.C.
   PSTRESS=    0.0 pullay stress

  Mass of Ions in am
   POMASS = 196.97
  Ionic Valenz
   ZVAL   =  11.00
  Atomic Wigner-Seitz radii
   RWIGS  =  -1.00
  virtual crystal weights 
   VCA    =   1.00
   NELECT =     220.0000    total number of electrons
   NUPDOWN=      -1.0000    fix difference up-down

 DOS related values:
   EMIN   =  10.00;   EMAX   =-10.00  energy-range for DOS
   EFERMI =   0.00;   METHOD = LEGACY      
   ISMEAR =     0;   SIGMA  =   0.05  broadening in eV -4-tet -1-fermi 0-gaus

 Electronic relaxation 2 (details)
   IALGO  =     58    algorithm
   LDIAG  =      T    sub-space diagonalisation (order eigenvalues)
   LSUBROT=      F    optimize rotation matrix (better conditioning)
   TURBO    =      0    0=normal 1=particle mesh
   IRESTART =      0    0=no restart 2=restart with 2 vectors
   NREBOOT  =      0    no. of reboots
   NMIN     =      0    reboot dimension
   EREF     =   0.00    reference energy to select bands
   IMIX   =      4    mixing-type and parameters
     AMIX     =   0.40;   BMIX     =  1.00
     AMIX_MAG =   1.60;   BMIX_MAG =  1.00
     AMIN     =   0.10
     WC   =   100.;   INIMIX=   1;  MIXPRE=   1;  MAXMIX= -45

 Intra band minimization:
   WEIMIN = 0.0000     energy-eigenvalue tresh-hold
   EBREAK =  0.13E-06  absolut break condition
   DEPER  =   0.30     relativ break condition  

   TIME   =   0.40     timestep for ELM

  volume/ion in A,a.u.               =     670.28      4523.25
  Fermi-wavevector in a.u.,A,eV,Ry     =   0.416027  0.786176  2.354870  0.173078
  Thomas-Fermi vector in A             =   1.375354
 
 Write flags
   LWAVE        =      F    write WAVECAR
   LDOWNSAMPLE  =      F    k-point downsampling of WAVECAR
   LCHARG       =      F    write CHGCAR
   LVTOT        =      F    write LOCPOT, total local potential
   LVHAR        =      F    write LOCPOT, Hartree potential only
   LELF         =      F    write electronic localiz. function (ELF)
   LORBIT       =      0    0 simple, 1 ext, 2 COOP (PROOUT), +10 PAW based schemes


 Dipole corrections
   LMONO  =      F    monopole corrections only (constant potential shift)
   LDIPOL =      F    correct potential (dipole corrections)
   IDIPOL =      0    1-x, 2-y, 3-z, 4-all directions 
   EPSILON=  1.0000000 bulk dielectric constant

 Exchange correlation treatment:
   GGA     =    PE    GGA type
   LEXCH   =     8    internal setting for exchange type
   LIBXC   =     F    Libxc                    
   VOSKOWN =     0    Vosko Wilk Nusair interpolation
   EXXOEP  =     0    0=HF, 1=EXX-LHF (local Hartree Fock) 2=EXX OEP
   LHFCALC =     T    Hartree Fock is set to
   LSYMGRAD=     F    symmetrize gradient (conserves proper symmetry)
   PRECFOCK=normal    Normal, Fast or Accurate (Low or Medium for compatibility)
   LRHFCALC=     F    long range Hartree Fock
   LRSCOR  =     F    long range correlation only (use DFT for short range part)
   LTHOMAS =     F    Thomas Fermi screening in HF
   LMODELHF=     F    short range full HF, long range fraction AEXX
   FOCKCORR=     1    mode to apply convergence corrections
   LFOCKACE=     T    use Adeptively-Compressed-Exchange operator
   ENCUT4O =  -1.0   cutoff for four orbital integrals eV
   LMAXFOCK=     4    L truncation for augmentation on plane wave grid
   LMAXFOCKAE=  -1    L truncation for all-electron charge restoration on plane wave grid
   NMAXFOCKAE=   1    number of basis functions for all-electron charge restoration
   LFOCKAEDFT=     F  apply the AE augmentation even for DFT
   NKREDX  =     1    reduce k-point grid by
   NKREDY  =     1    reduce k-point grid by
   NKREDZ  =     1    reduce k-point grid by
   SHIFTRED=     F    shift reduced grid of Gamma
   HFKIDENT=     F    idential grid for each k-point
   ODDONLY =     F    use only odd q-grid points
   EVENONLY=     F    use only even q-grid points
   HFALPHA =   -1.0000 decay constant for conv. correction
   MCALPHA =    0.0000 extent of test-charge in conv. correction in multipole expansion
   AEXX    =    0.2500 exact exchange contribution
   HFSCREEN=    0.0000 screening length (either q_TF or 0.3 A-1)
   HFSCREENC=   0.0000 screening length for correlation (either q_TF or 0.3 A-1)
   HFRCUT  =    0.0000 spherical cutoff for potential kernel
   ALDAX   =    0.7500 LDA exchange part
   AGGAX   =    0.7500 GGA exchange part
   ALDAC   =    1.0000 LDA correlation
   AGGAC   =    1.0000 GGA correlation
   ENCUTFOCK=  -1.0 apply spherical cutoff to Coloumb kernel
   NBANDSGWLOW=     1    first orbital included in HF term
   NBLOCK_FOCK=    64    blocking factor in FOCK_ACC

 Linear response parameters
   LEPSILON=     F    determine dielectric tensor
   LRPA    =     F    only Hartree local field effects (RPA)
   LNABLA  =     F    use nabla operator in PAW spheres
   LVEL    =     F    velocity operator in full k-point grid
   CSHIFT  =0.1000    complex shift for real part using Kramers Kronig
   OMEGAMAX=  -1.0    maximum frequency
   DEG_THRESHOLD= 0.2000000E-02 threshold for treating states as degnerate
   RTIME   =   -0.100 relaxation time in fs
  (WPLASMAI=    0.000 imaginary part of plasma frequency in eV, 0.658/RTIME)
   DFIELD  = 0.0000000 0.0000000 0.0000000 field for delta impulse in time
 
  Optional k-point grid parameters
   LKPOINTS_OPT  =     F    use optional k-point grid
   KPOINTS_OPT_MODE=     1    mode for optional k-point grid
 
 Orbital magnetization related:
   ORBITALMAG=     F  switch on orbital magnetization
   LCHIMAG   =     F  perturbation theory with respect to B field
   DQ        =  0.001000  dq finite difference perturbation B field
   LLRAUG    =     F  two centre corrections for induced B field
   LBONE     =     F  B-component reconstruction in AE one-centre
   LVGVCALC  =     T  calculate vGv susceptibility
   LVGVAPPL  =     F  apply vGv susceptibility instead of pGv for G=0

 Random number generation:
   RANDOM_GENERATOR = DEFAULT
   PCG_SEED         = not used


--------------------------------------------------------------------------------------------------------


 Static calculation
 charge density and potential will be updated during run
 non-spin polarized calculation
 Conjugate gradient for all bands (Freysoldt, et al. PRB 79, 241103 (2009))
 preconditioned conjugated gradient                                        
 perform sub-space diagonalisation
    before iterative eigenvector-optimisation
 modified Broyden-mixing scheme, WC =      100.0
 initial mixing is a Kerker type mixing with AMIX =  0.4000 and BMIX =      1.0000
 Hartree-type preconditioning will be used
 using additional bands           82
 real space projection scheme for non local part
 use partial core corrections
 no Harris-corrections to forces 
 use gradient corrections 
 use of overlap-Matrix (Vanderbilt PP)
 Gauss-broadening in eV      SIGMA  =   0.05


--------------------------------------------------------------------------------------------------------


  energy-cutoff  :      520.00
  volume of cell :    13405.53
      direct lattice vectors                 reciprocal lattice vectors
    21.138852197  0.000000000  0.000000000     0.047306258  0.000000000  0.000000000
     0.000000000 21.138852197  0.000000000     0.000000000  0.047306258  0.000000000
     0.000000000  0.000000000 30.000000000     0.000000000  0.000000000  0.033333333

  length of vectors
    21.138852197 21.138852197 30.000000000     0.047306258  0.047306258  0.033333333


 
 k-points in units of 2pi/SCALE and weight: KPOINTS created by Atomic Simulation Env
   0.00000000  0.00000000  0.00000000       1.000
 
 k-points in reciprocal lattice and weights: KPOINTS created by Atomic Simulation Env
   0.00000000  0.00000000  0.00000000       1.000
 
 position of ions in fractional coordinates (direct lattice) 
   0.43080251  0.22672160  0.58268020
   0.55911485  0.23682704  0.58963571
   0.68338351  0.25158269  0.59312148
   0.80935128  0.25959553  0.59632194
   0.47556700  0.34834038  0.58721026
   0.61005856  0.36283082  0.58979764
   0.74847957  0.37267310  0.59272587
   0.52362243  0.46651458  0.58532546
   0.67834213  0.47753045  0.58667460
   0.59496548  0.57565602  0.57981207
   0.47953120  0.26883423  0.66220263
   0.61266371  0.27736597  0.66938707
   0.74507455  0.29714759  0.67203245
   0.52522399  0.39890681  0.66412058
   0.67867710  0.41270361  0.66698235
   0.59459207  0.51493558  0.65827129
   0.53300147  0.31809175  0.73600958
   0.67311112  0.33322389  0.74081433
   0.59495049  0.44632103  0.73410494
   0.59480459  0.36818851  0.80622027
 
 position of ions in cartesian coordinates  (Angst):
   9.10667057  4.79263449 17.48040598
  11.81904625  5.00625180 17.68907125
  14.44594309  5.31816931 17.79364437
  17.10875718  5.48755158 17.88965831
  10.05294056  7.36351586 17.61630786
  12.89593773  7.66982717 17.69392927
  15.82199901  7.87788153 17.78177598
  11.06877717  9.86158281 17.55976377
  14.33937413 10.09444552 17.60023812
  12.57688728 12.16870742 17.39436203
  10.13673926  5.68284701 19.86607892
  12.95100761  5.86319820 20.08161222
  15.75002088  6.28135889 20.16097353
  11.10263219  8.43243205 19.92361741
  14.34645484  8.72408058 20.00947048
  12.56899398 10.88514703 19.74813880
  11.26703921  6.72409444 22.08028742
  14.22879647  7.04397050 22.22442991
  12.57657054  9.43471437 22.02314820
  12.57348642  7.78308255 24.18660822
 


--------------------------------------------------------------------------------------------------------


 k-point   1 :   0.0000 0.0000 0.0000  plane waves:  361007

 maximum and minimum number of plane-waves per node :     90260    90248

 maximum number of plane-waves:    361007
 maximum index in each direction: 
   IXMAX=   39   IYMAX=   39   IZMAX=   55
   IXMIN=  -39   IYMIN=  -39   IZMIN=  -55


 real space projection operators:
  total allocation   :       5215.64 KBytes
  max/ min on nodes  :       1310.20       1301.48


 parallel 3D FFT for wavefunctions:
    minimum data exchange during FFTs selected (reduces bandwidth)
 parallel 3D FFT for charge:
    minimum data exchange during FFTs selected (reduces bandwidth)

 
 Radii for the augmentation spheres in the non-local exchange
 for species   1 augmentation radius   1.512 (default was   1.210)
       energy cutoff for augmentation   2080.0

 real space projection operators:
  total allocation   :      10212.89 KBytes
  max/ min on nodes  :       2562.11       2541.80

 Maximum index for augmentation-charges in exchange          668
  SETUP_FOCK is finished

 total amount of memory used by VASP MPI-rank0   118414. kBytes
=======================================================================

   base      :      30000. kBytes
   nonlr-proj:       6323. kBytes
   fftplans  :      40795. kBytes
   grid      :      28135. kBytes
   one-center:         77. kBytes
   HF        :         64. kBytes
   wavefun   :      13020. kBytes
 
     INWAV:  cpu time      0.0004: real time      0.0005
 Broyden mixing: mesh for mixing (old mesh)
   NGX = 79   NGY = 79   NGZ =111
  (NGX  =240   NGY  =240   NGZ  =336)
  gives a total of 692751 points

 initial charge density was supplied:
 charge density of overlapping atoms calculated
 number of electron     220.0000000 magnetization 
 keeping initial charge density in first step


--------------------------------------------------------------------------------------------------------


 Maximum index for non-local projection operator          478
 Maximum index for augmentation-charges            0 (set IRDMAX)


--------------------------------------------------------------------------------------------------------


    FEWALD:  cpu time      0.0027: real time      0.0027


--------------------------------------- Ionic step        1  -------------------------------------------




--------------------------------------- Iteration      1(   1)  ---------------------------------------


    POTLOK:  cpu time      0.2351: real time      0.2447
    SETDIJ:  cpu time      0.7591: real time      0.7592
    TRIAL :  cpu time      1.7466: real time      1.8530
    CORREC:  cpu time      0.0024: real time      0.0024
    --------------------------------------------
      LOOP:  cpu time      2.7474: real time      2.8646

 eigenvalue-minimisations  :   384
 total energy-change (2. order) :-0.4595086E+05  (-0.4969267E+04)
 number of electron     220.0000000 magnetization 
 augmentation part      220.0000000 magnetization 

 Free energy of the ion-electron system (eV)
  ---------------------------------------------------
  alpha Z        PSCENC =        34.75568252
  Ewald energy   TEWEN  =     39913.34743230
  -Hartree energ DENC   =    -57676.86523980
  -exchange      EXHF   =         0.00000000
  -V(xc)+E(xc)   XCENC  =       296.65503577
  PAW double counting   =     17481.95006706   -64672.61088726
  entropy T*S    EENTRO =        -0.09121905
  eigenvalues    EBANDS =       162.16110935
  atomic energy  EATOM  =     18509.84244937
  ---------------------------------------------------
  free energy    TOTEN  =    -45950.85556974 eV

  energy without entropy =   -45950.76435070  energy(sigma->0) =   -45950.80996022
  exchange ACFDT corr.  =         0.00000000  see jH, gK, PRB 81, 115126


--------------------------------------------------------------------------------------------------------




--------------------------------------- Iteration      1(   2)  ---------------------------------------


    TRIAL :  cpu time      3.0218: real time      3.0233
    CORREC:  cpu time      0.0023: real time      0.0023
    --------------------------------------------
      LOOP:  cpu time      3.0272: real time      3.0365

 eigenvalue-minimisations  :   768
 total energy-change (2. order) :-0.1899887E+04  (-0.1759166E+04)
 number of electron     220.0000000 magnetization 
 augmentation part      220.0000000 magnetization 

 Free energy of the ion-electron system (eV)
  ---------------------------------------------------
  alpha Z        PSCENC =        34.75568252
  Ewald energy   TEWEN  =     39913.34743230
  -Hartree energ DENC   =    -57676.86523980
  -exchange      EXHF   =         0.00000000
  -V(xc)+E(xc)   XCENC  =       296.65503577
  PAW double counting   =     17481.95006706   -64672.61088726
  entropy T*S    EENTRO =        -0.03508261
  eigenvalues    EBANDS =     -1737.78197683
  atomic energy  EATOM  =     18509.84244937
  ---------------------------------------------------
  free energy    TOTEN  =    -47850.74251949 eV

  energy without entropy =   -47850.70743688  energy(sigma->0) =   -47850.72497818
  exchange ACFDT corr.  =         0.00000000  see jH, gK, PRB 81, 115126


--------------------------------------------------------------------------------------------------------




--------------------------------------- Iteration      1(   3)  ---------------------------------------


    TRIAL :  cpu time      1.8586: real time      1.8574
    CORREC:  cpu time      0.0007: real time      0.0007
    --------------------------------------------
      LOOP:  cpu time      1.8629: real time      1.8704

 eigenvalue-minimisations  :   512
 total energy-change (2. order) :-0.5013646E+03  (-0.4963625E+03)
 number of electron     220.0000000 magnetization 
 augmentation part      220.0000000 magnetization 

 Free energy of the ion-electron system (eV)
  ---------------------------------------------------
  alpha Z        PSCENC =        34.75568252
  Ewald energy   TEWEN  =     39913.34743230
  -Hartree energ DENC   =    -57676.86523980
  -exchange      EXHF   =         0.00000000
  -V(xc)+E(xc)   XCENC  =       296.65503577
  PAW double counting   =     17481.95006706   -64672.61088726
  entropy T*S    EENTRO =        -0.00000000
  eigenvalues    EBANDS =     -2239.18160963
  atomic energy  EATOM  =     18509.84244937
  ---------------------------------------------------
  free energy    TOTEN  =    -48352.10706967 eV

  energy without entropy =   -48352.10706967  energy(sigma->0) =   -48352.10706967
  exchange ACFDT corr.  =         0.00000000  see jH, gK, PRB 81, 115126


--------------------------------------------------------------------------------------------------------




--------------------------------------- Iteration      1(   4)  ---------------------------------------


    TRIAL :  cpu time      1.6383: real time      1.6373
    CORREC:  cpu time      0.0008: real time      0.0008
    --------------------------------------------
      LOOP:  cpu time      1.6411: real time      1.6481

 eigenvalue-minimisations  :   448
 total energy-change (2. order) :-0.6069362E+01  (-0.6067289E+01)
 number of electron     220.0000000 magnetization 
 augmentation part      220.0000000 magnetization 

 Free energy of the ion-electron system (eV)
  ---------------------------------------------------
  alpha Z        PSCENC =        34.75568252
  Ewald energy   TEWEN  =     39913.34743230
  -Hartree energ DENC   =    -57676.86523980
  -exchange      EXHF   =         0.00000000
  -V(xc)+E(xc)   XCENC  =       296.65503577
  PAW double counting   =     17481.95006706   -64672.61088726
  entropy T*S    EENTRO =        -0.00000000
  eigenvalues    EBANDS =     -2245.25097206
  atomic energy  EATOM  =     18509.84244937
  ---------------------------------------------------
  free energy    TOTEN  =    -48358.17643210 eV

  energy without entropy =   -48358.17643210  energy(sigma->0) =   -48358.17643210
  exchange ACFDT corr.  =         0.00000000  see jH, gK, PRB 81, 115126


--------------------------------------------------------------------------------------------------------




--------------------------------------- Iteration      1(   5)  ---------------------------------------


    POTLOK:  cpu time      0.1834: real time      0.1835
    SETDIJ:  cpu time      0.7715: real time      0.7714
    TRIAL :  cpu time     47.2620: real time     47.4224
    CORREC:  cpu time      0.0010: real time      0.0010
    CHARGE:  cpu time      0.1321: real time      0.1312
    --------------------------------------------
      LOOP:  cpu time     48.3526: real time     48.5200

 eigenvalue-minimisations  :   448
 total energy-change (2. order) : 0.4830324E+05  (-0.2011058E+02)
 number of electron     219.9999987 magnetization 
 augmentation part       82.8157475 magnetization 

 Free energy of the ion-electron system (eV)
  ---------------------------------------------------
  alpha Z        PSCENC =        34.75568252
  Ewald energy   TEWEN  =     39913.34743230
  -Hartree energ DENC   =    -57676.86523980
  -exchange      EXHF   =       518.37454981
  -V(xc)+E(xc)   XCENC  =       226.73012621
  PAW double counting   =     17546.51159588   -17111.08092501
  entropy T*S    EENTRO =        -0.00000000
  eigenvalues    EBANDS =     -2016.55000850
  atomic energy  EATOM  =     18509.84244937
  ---------------------------------------------------
  free energy    TOTEN  =       -54.93433722 eV

  energy without entropy =      -54.93433722  energy(sigma->0) =      -54.93433722
  exchange ACFDT corr.  =        -0.00000000  see jH, gK, PRB 81, 115126


--------------------------------------------------------------------------------------------------------




--------------------------------------- Iteration      1(   6)  ---------------------------------------


    POTLOK:  cpu time      0.1996: real time      0.1996
    SETDIJ:  cpu time      0.7609: real time      0.7610
    TRIAL :  cpu time     45.6653: real time     45.6658
    CORREC:  cpu time     46.8098: real time     46.9934
    CHARGE:  cpu time      0.1094: real time      0.1080
    --------------------------------------------
      LOOP:  cpu time     93.5477: real time     93.7391

 eigenvalue-minimisations  :     0
 total energy-change (2. order) : 0.1244807E+01  (-0.3218334E+01)
 number of electron     219.9999987 magnetization 
 augmentation part       82.1221845 magnetization 

 Free energy of the ion-electron system (eV)
  ---------------------------------------------------
  alpha Z        PSCENC =        34.75568252
  Ewald energy   TEWEN  =     39913.34743230
  -Hartree energ DENC   =    -58173.16213175
  -exchange      EXHF   =       498.64888253
  -V(xc)+E(xc)   XCENC  =       226.90687354
  PAW double counting   =     22792.81340260   -22386.63421093
  entropy T*S    EENTRO =        -0.00000000
  eigenvalues    EBANDS =     -1470.20791069
  atomic energy  EATOM  =     18509.84244937
  ---------------------------------------------------
  free energy    TOTEN  =       -53.68953050 eV

  energy without entropy =      -53.68953050  energy(sigma->0) =      -53.68953050
  exchange ACFDT corr.  =        -0.00000000  see jH, gK, PRB 81, 115126


--------------------------------------------------------------------------------------------------------




--------------------------------------- Iteration      1(   7)  ---------------------------------------


    POTLOK:  cpu time      0.2349: real time      0.2347
    SETDIJ:  cpu time      0.7502: real time      0.7502
    TRIAL :  cpu time     46.0364: real time     46.2146
    CORREC:  cpu time     47.0021: real time     47.2068
    CHARGE:  cpu time      0.1103: real time      0.1089
    --------------------------------------------
      LOOP:  cpu time     94.1448: real time     94.5264

 eigenvalue-minimisations  :     0
 total energy-change (2. order) :-0.3246550E+01  (-0.4680988E+00)
 number of electron     219.9999987 magnetization 
 augmentation part       82.0038980 magnetization 

 Free energy of the ion-electron system (eV)
  ---------------------------------------------------
  alpha Z        PSCENC =        34.75568252
  Ewald energy   TEWEN  =     39913.34743230
  -Hartree energ DENC   =    -57736.99913347
  -exchange      EXHF   =       495.61849441
  -V(xc)+E(xc)   XCENC  =       223.95694652
  PAW double counting   =     22355.20102214   -21950.71405073
  entropy T*S    EENTRO =        -0.00000000
  eigenvalues    EBANDS =     -1901.94492351
  atomic energy  EATOM  =     18509.84244937
  ---------------------------------------------------
  free energy    TOTEN  =       -56.93608046 eV

  energy without entropy =      -56.93608046  energy(sigma->0) =      -56.93608046
  exchange ACFDT corr.  =        -0.00000000  see jH, gK, PRB 81, 115126


--------------------------------------------------------------------------------------------------------




--------------------------------------- Iteration      1(   8)  ---------------------------------------


    POTLOK:  cpu time      0.2322: real time      0.2321
    SETDIJ:  cpu time      0.7473: real time      0.7474
    TRIAL :  cpu time     46.0316: real time     46.1940
    CORREC:  cpu time     46.9319: real time     46.9921
    CHARGE:  cpu time      0.1088: real time      0.1075
    --------------------------------------------
      LOOP:  cpu time     94.0559: real time     94.2860

 eigenvalue-minimisations  :     0
 total energy-change (2. order) :-0.4664294E+00  (-0.1147697E+00)
 number of electron     219.9999987 magnetization 
 augmentation part       82.0389266 magnetization 

 Free energy of the ion-electron system (eV)
  ---------------------------------------------------
  alpha Z        PSCENC =        34.75568252
  Ewald energy   TEWEN  =     39913.34743230
  -Hartree energ DENC   =    -57703.62008071
  -exchange      EXHF   =       495.36168927
  -V(xc)+E(xc)   XCENC  =       223.78595240
  PAW double counting   =     22075.11531644   -21671.70659468
  entropy T*S    EENTRO =        -0.00000000
  eigenvalues    EBANDS =     -1934.28435676
  atomic energy  EATOM  =     18509.84244937
  ---------------------------------------------------
  free energy    TOTEN  =       -57.40250984 eV

  energy without entropy =      -57.40250984  energy(sigma->0) =      -57.40250984
  exchange ACFDT corr.  =        -0.00000000  see jH, gK, PRB 81, 115126


--------------------------------------------------------------------------------------------------------




--------------------------------------- Iteration      1(   9)  ---------------------------------------


    POTLOK:  cpu time      0.4598: real time      0.5983
    SETDIJ:  cpu time      0.7496: real time      0.7496
    TRIAL :  cpu time     46.2447: real time     46.2401
    CORREC:  cpu time     46.6636: real time     46.8079
    CHARGE:  cpu time      0.1117: real time      0.1098
    --------------------------------------------
      LOOP:  cpu time     94.2335: real time     94.5183

 eigenvalue-minimisations  :     0
 total energy-change (2. order) :-0.1146706E+00  (-0.4138930E-01)
 number of electron     219.9999987 magnetization 
 augmentation part       81.9669769 magnetization 

 Free energy of the ion-electron system (eV)
  ---------------------------------------------------
  alpha Z        PSCENC =        34.75568252
  Ewald energy   TEWEN  =     39913.34743230
  -Hartree energ DENC   =    -57699.84030612
  -exchange      EXHF   =       495.63160509
  -V(xc)+E(xc)   XCENC  =       224.06477595
  PAW double counting   =     21952.94408658   -21549.79705369
  entropy T*S    EENTRO =        -0.00000000
  eigenvalues    EBANDS =     -1938.46585247
  atomic energy  EATOM  =     18509.84244937
  ---------------------------------------------------
  free energy    TOTEN  =       -57.51718047 eV

  energy without entropy =      -57.51718047  energy(sigma->0) =      -57.51718047
  exchange ACFDT corr.  =        -0.00000000  see jH, gK, PRB 81, 115126


--------------------------------------------------------------------------------------------------------




--------------------------------------- Iteration      1(  10)  ---------------------------------------


    POTLOK:  cpu time      0.3112: real time      0.3902
    SETDIJ:  cpu time      0.7485: real time      0.7486
    TRIAL :  cpu time     46.2347: real time     46.2290
    CORREC:  cpu time     46.9404: real time     47.0148
    CHARGE:  cpu time      0.1134: real time      0.1116
    --------------------------------------------
      LOOP:  cpu time     94.3510: real time     94.5057

 eigenvalue-minimisations  :     0
 total energy-change (2. order) :-0.4139936E-01  (-0.1317444E-01)
 number of electron     219.9999987 magnetization 
 augmentation part       81.9708503 magnetization 

 Free energy of the ion-electron system (eV)
  ---------------------------------------------------
  alpha Z        PSCENC =        34.75568252
  Ewald energy   TEWEN  =     39913.34743230
  -Hartree energ DENC   =    -57685.92643317
  -exchange      EXHF   =       495.38390755
  -V(xc)+E(xc)   XCENC  =       223.80315991
  PAW double counting   =     21889.26153986   -21486.32879923
  entropy T*S    EENTRO =        -0.00000000
  eigenvalues    EBANDS =     -1951.69751894
  atomic energy  EATOM  =     18509.84244937
  ---------------------------------------------------
  free energy    TOTEN  =       -57.55857983 eV

  energy without entropy =      -57.55857983  energy(sigma->0) =      -57.55857983
  exchange ACFDT corr.  =        -0.00000000  see jH, gK, PRB 81, 115126


--------------------------------------------------------------------------------------------------------




--------------------------------------- Iteration      1(  11)  ---------------------------------------


    POTLOK:  cpu time      0.3187: real time      0.3794
    SETDIJ:  cpu time      0.7469: real time      0.7475
    TRIAL :  cpu time     46.1584: real time     46.1525
    CORREC:  cpu time     46.8829: real time     46.9547
    CHARGE:  cpu time      0.1126: real time      0.1109
    --------------------------------------------
      LOOP:  cpu time     94.2232: real time     94.3575

 eigenvalue-minimisations  :     0
 total energy-change (2. order) :-0.1318418E-01  (-0.3906357E-02)
 number of electron     219.9999987 magnetization 
 augmentation part       81.9803395 magnetization 

 Free energy of the ion-electron system (eV)
  ---------------------------------------------------
  alpha Z        PSCENC =        34.75568252
  Ewald energy   TEWEN  =     39913.34743230
  -Hartree energ DENC   =    -57678.97324141
  -exchange      EXHF   =       495.35277767
  -V(xc)+E(xc)   XCENC  =       223.76178273
  PAW double counting   =     21891.42087751   -21488.38878634
  entropy T*S    EENTRO =        -0.00000000
  eigenvalues    EBANDS =     -1958.69073837
  atomic energy  EATOM  =     18509.84244937
  ---------------------------------------------------
  free energy    TOTEN  =       -57.57176401 eV

  energy without entropy =      -57.57176401  energy(sigma->0) =      -57.57176401
  exchange ACFDT corr.  =        -0.00000000  see jH, gK, PRB 81, 115126


--------------------------------------------------------------------------------------------------------




--------------------------------------- Iteration      1(  12)  ---------------------------------------


    POTLOK:  cpu time      0.3137: real time      0.3760
    SETDIJ:  cpu time      0.7491: real time      0.7497
    TRIAL :  cpu time     46.2555: real time     46.2519
    CORREC:  cpu time     46.8448: real time     46.9168
    CHARGE:  cpu time      0.1146: real time      0.1129
    --------------------------------------------
      LOOP:  cpu time     94.2805: real time     94.4188

 eigenvalue-minimisations  :     0
 total energy-change (2. order) :-0.3904442E-02  (-0.1284431E-02)
 number of electron     219.9999987 magnetization 
 augmentation part       81.9670612 magnetization 

 Free energy of the ion-electron system (eV)
  ---------------------------------------------------
  alpha Z        PSCENC =        34.75568252
  Ewald energy   TEWEN  =     39913.34743230
  -Hartree energ DENC   =    -57680.24844231
  -exchange      EXHF   =       495.38054400
  -V(xc)+E(xc)   XCENC  =       223.78901079
  PAW double counting   =     21904.59949963   -21501.55385709
  entropy T*S    EENTRO =        -0.00000000
  eigenvalues    EBANDS =     -1957.48798768
  atomic energy  EATOM  =     18509.84244937
  ---------------------------------------------------
  free energy    TOTEN  =       -57.57566845 eV

  energy without entropy =      -57.57566845  energy(sigma->0) =      -57.57566845
  exchange ACFDT corr.  =        -0.00000000  see jH, gK, PRB 81, 115126


--------------------------------------------------------------------------------------------------------




--------------------------------------- Iteration      1(  13)  ---------------------------------------


    POTLOK:  cpu time      0.2984: real time      0.3811
    SETDIJ:  cpu time      0.7504: real time      0.7509
    TRIAL :  cpu time     46.2623: real time     46.2568
    CORREC:  cpu time     46.8267: real time     46.9390
    CHARGE:  cpu time      0.1097: real time      0.1081
    --------------------------------------------
      LOOP:  cpu time     94.2501: real time     94.4483

 eigenvalue-minimisations  :     0
 total energy-change (2. order) :-0.1287597E-02  (-0.4085003E-03)
 number of electron     219.9999987 magnetization 
 augmentation part       81.9613496 magnetization 

 Free energy of the ion-electron system (eV)
  ---------------------------------------------------
  alpha Z        PSCENC =        34.75568252
  Ewald energy   TEWEN  =     39913.34743230
  -Hartree energ DENC   =    -57678.66686000
  -exchange      EXHF   =       495.34883055
  -V(xc)+E(xc)   XCENC  =       223.76029866
  PAW double counting   =     21907.61095147   -21504.64514968
  entropy T*S    EENTRO =        -0.00000000
  eigenvalues    EBANDS =     -1958.93059125
  atomic energy  EATOM  =     18509.84244937
  ---------------------------------------------------
  free energy    TOTEN  =       -57.57695605 eV

  energy without entropy =      -57.57695605  energy(sigma->0) =      -57.57695605
  exchange ACFDT corr.  =        -0.00000000  see jH, gK, PRB 81, 115126


--------------------------------------------------------------------------------------------------------




--------------------------------------- Iteration      1(  14)  ---------------------------------------


    POTLOK:  cpu time      0.3805: real time      0.5426
    SETDIJ:  cpu time      0.7462: real time      0.7468
    TRIAL :  cpu time     46.2369: real time     46.2306
    CORREC:  cpu time     46.9449: real time     47.0176
    CHARGE:  cpu time      0.1126: real time      0.1108
    --------------------------------------------
      LOOP:  cpu time     94.4237: real time     94.6600

 eigenvalue-minimisations  :     0
 total energy-change (2. order) :-0.4092266E-03  (-0.1221235E-03)
 number of electron     219.9999987 magnetization 
 augmentation part       81.9620246 magnetization 

 Free energy of the ion-electron system (eV)
  ---------------------------------------------------
  alpha Z        PSCENC =        34.75568252
  Ewald energy   TEWEN  =     39913.34743230
  -Hartree energ DENC   =    -57679.10574141
  -exchange      EXHF   =       495.34357694
  -V(xc)+E(xc)   XCENC  =       223.75634310
  PAW double counting   =     21906.79585943   -21503.88330551
  entropy T*S    EENTRO =        -0.00000000
  eigenvalues    EBANDS =     -1958.42966201
  atomic energy  EATOM  =     18509.84244937
  ---------------------------------------------------
  free energy    TOTEN  =       -57.57736527 eV

  energy without entropy =      -57.57736527  energy(sigma->0) =      -57.57736527
  exchange ACFDT corr.  =        -0.00000000  see jH, gK, PRB 81, 115126


--------------------------------------------------------------------------------------------------------




--------------------------------------- Iteration      1(  15)  ---------------------------------------


    POTLOK:  cpu time      0.4243: real time      0.5652
    SETDIJ:  cpu time      0.7482: real time      0.7485
    TRIAL :  cpu time     46.1052: real time     46.0992
    CORREC:  cpu time     46.9705: real time     47.0177
    CHARGE:  cpu time      0.1142: real time      0.1124
    --------------------------------------------
      LOOP:  cpu time     94.3650: real time     94.5553

 eigenvalue-minimisations  :     0
 total energy-change (2. order) :-0.1212030E-03  (-0.3551973E-04)
 number of electron     219.9999987 magnetization 
 augmentation part       81.9615725 magnetization 

 Free energy of the ion-electron system (eV)
  ---------------------------------------------------
  alpha Z        PSCENC =        34.75568252
  Ewald energy   TEWEN  =     39913.34743230
  -Hartree energ DENC   =    -57679.36987564
  -exchange      EXHF   =       495.34961750
  -V(xc)+E(xc)   XCENC  =       223.76163506
  PAW double counting   =     21905.21391889   -21502.31298937
  entropy T*S    EENTRO =        -0.00000000
  eigenvalues    EBANDS =     -1958.16535711
  atomic energy  EATOM  =     18509.84244937
  ---------------------------------------------------
  free energy    TOTEN  =       -57.57748648 eV

  energy without entropy =      -57.57748648  energy(sigma->0) =      -57.57748648
  exchange ACFDT corr.  =        -0.00000000  see jH, gK, PRB 81, 115126


--------------------------------------------------------------------------------------------------------




--------------------------------------- Iteration      1(  16)  ---------------------------------------


    POTLOK:  cpu time      0.2185: real time      0.2183
    SETDIJ:  cpu time      0.9282: real time      1.0733
    TRIAL :  cpu time     46.1957: real time     46.1895
    CORREC:  cpu time     46.9593: real time     47.0975
    EDDIAG:  cpu time     44.8903: real time     44.9003
    CHARGE:  cpu time      0.1048: real time      0.1050
    --------------------------------------------
      LOOP:  cpu time    139.3009: real time    139.5966

 eigenvalue-minimisations  :     0
 total energy-change (2. order) :-0.3560121E-04  (-0.1342316E-04)
 number of electron     219.9999987 magnetization 
 augmentation part       81.9610839 magnetization 

 Free energy of the ion-electron system (eV)
  ---------------------------------------------------
  alpha Z        PSCENC =        34.75568252
  Ewald energy   TEWEN  =     39913.34743230
  -Hartree energ DENC   =    -57679.42997033
  -exchange      EXHF   =       495.34861041
  -V(xc)+E(xc)   XCENC  =       223.76116419
  PAW double counting   =     21904.25036906   -21501.35310985
  entropy T*S    EENTRO =        -0.00000000
  eigenvalues    EBANDS =     -1958.10100992
  atomic energy  EATOM  =     18509.84244937
  ---------------------------------------------------
  free energy    TOTEN  =       -57.57752208 eV

  energy without entropy =      -57.57752208  energy(sigma->0) =      -57.57752208
  exchange ACFDT corr.  =        -0.00000000  see jH, gK, PRB 81, 115126


--------------------------------------------------------------------------------------------------------


  average scaling for gradient   1.0209


 average (electrostatic) potential at core
  the test charge radii are     1.2098
  (the norm of the test charge is              1.0000)
       1 -70.9140       2 -70.9730       3 -71.0119       4 -70.9611       5 -70.9943
       6 -70.9158       7 -70.9694       8 -70.9276       9 -70.9469      10 -70.9549
      11 -70.9628      12 -70.9457      13 -70.9601      14 -70.9667      15 -70.9698
      16 -70.9717      17 -71.0099      18 -71.0130      19 -70.9985      20 -70.9888
 
 
 
 E-fermi :  -5.5853     XC(G=0):  -0.4481     alpha+bet : -0.3543

 Fermi energy:        -5.5852776795

 k-point     1 :       0.0000    0.0000    0.0000
  band No.  band energies     occupation 
      1     -12.6379      2.00000
      2     -11.8000      2.00000
      3     -11.7901      2.00000
      4     -11.6877      2.00000
      5     -11.5967      2.00000
      6     -11.4337      2.00000
      7     -11.3898      2.00000
      8     -11.2842      2.00000
      9     -11.2424      2.00000
     10     -11.2116      2.00000
     11     -11.1978      2.00000
     12     -11.1657      2.00000
     13     -11.1003      2.00000
     14     -10.6265      2.00000
     15     -10.5930      2.00000
     16     -10.5348      2.00000
     17     -10.4821      2.00000
     18     -10.4614      2.00000
     19     -10.4168      2.00000
     20     -10.4047      2.00000
     21     -10.3976      2.00000
     22     -10.2778      2.00000
     23     -10.2471      2.00000
     24     -10.2121      2.00000
     25     -10.1426      2.00000
     26     -10.0955      2.00000
     27     -10.0138      2.00000
     28      -9.9731      2.00000
     29      -9.9471      2.00000
     30      -9.9082      2.00000
     31      -9.8554      2.00000
     32      -9.8159      2.00000
     33      -9.7235      2.00000
     34      -9.5828      2.00000
     35      -9.5366      2.00000
     36      -9.5032      2.00000
     37      -9.4719      2.00000
     38      -9.4430      2.00000
     39      -9.4270      2.00000
     40      -9.4011      2.00000
     41      -9.3674      2.00000
     42      -9.3284      2.00000
     43      -9.3127      2.00000
     44      -9.2844      2.00000
     45      -9.2541      2.00000
     46      -9.2382      2.00000
     47      -9.1723      2.00000
     48      -9.1516      2.00000
     49      -9.1323      2.00000
     50      -9.1234      2.00000
     51      -9.0699      2.00000
     52      -8.6997      2.00000
     53      -8.6660      2.00000
     54      -8.6159      2.00000
     55      -8.6107      2.00000
     56      -8.6021      2.00000
     57      -8.5693      2.00000
     58      -8.5228      2.00000
     59      -8.5061      2.00000
     60      -8.4793      2.00000
     61      -8.4468      2.00000
     62      -8.4460      2.00000
     63      -8.4373      2.00000
     64      -8.4188      2.00000
     65      -8.4076      2.00000
     66      -8.3939      2.00000
     67      -8.3806      2.00000
     68      -8.3657      2.00000
     69      -8.3367      2.00000
     70      -8.3140      2.00000
     71      -8.2684      2.00000
     72      -8.2413      2.00000
     73      -8.2073      2.00000
     74      -8.1727      2.00000
     75      -8.1509      2.00000
     76      -8.0388      2.00000
     77      -8.0013      2.00000
     78      -7.9904      2.00000
     79      -7.9599      2.00000
     80      -7.9182      2.00000
     81      -7.9122      2.00000
     82      -7.8982      2.00000
     83      -7.8630      2.00000
     84      -7.8468      2.00000
     85      -7.8161      2.00000
     86      -7.7692      2.00000
     87      -7.7592      2.00000
     88      -7.7484      2.00000
     89      -7.6531      2.00000
     90      -7.5121      2.00000
     91      -7.5010      2.00000
     92      -7.4576      2.00000
     93      -7.4396      2.00000
     94      -7.4214      2.00000
     95      -7.3966      2.00000
     96      -7.3834      2.00000
     97      -7.3277      2.00000
     98      -7.3127      2.00000
     99      -7.1889      2.00000
    100      -7.1490      2.00000
    101      -7.1125      2.00000
    102      -6.9214      2.00000
    103      -6.8984      2.00000
    104      -6.8500      2.00000
    105      -6.6171      2.00000
    106      -6.1071      2.00000
    107      -6.0104      2.00000
    108      -5.8953      2.00000
    109      -5.8435      2.00000
    110      -5.8202      2.00000
    111      -2.9548      0.00000
    112      -2.8959      0.00000
    113      -2.8520      0.00000
    114      -2.5114      0.00000
    115      -2.4559      0.00000
    116      -2.2905      0.00000
    117      -2.2187      0.00000
    118      -2.1917      0.00000
    119      -2.1431      0.00000
    120      -2.0700      0.00000
    121      -1.0473      0.00000
    122      -0.8267      0.00000
    123      -0.7243      0.00000
    124      -0.5716      0.00000
    125      -0.4565      0.00000
    126      -0.3859      0.00000
    127       0.2692      0.00000
    128       0.2779      0.00000
    129       0.3388      0.00000
    130       0.3820      0.00000
    131       0.4921      0.00000
    132       0.5458      0.00000
    133       0.5687      0.00000
    134       0.6160      0.00000
    135       0.6451      0.00000
    136       0.6480      0.00000
    137       0.6543      0.00000
    138       0.6869      0.00000
    139       0.7047      0.00000
    140       0.7139      0.00000
    141       0.7460      0.00000
    142       0.7911      0.00000
    143       0.8007      0.00000
    144       0.8129      0.00000
    145       0.8144      0.00000
    146       0.8283      0.00000
    147       0.8360      0.00000
    148       0.8465      0.00000
    149       0.8593      0.00000
    150       0.9418      0.00000
    151       0.9759      0.00000
    152       0.9818      0.00000
    153       0.9850      0.00000
    154       1.0176      0.00000
    155       1.0207      0.00000
    156       1.0778      0.00000
    157       1.0967      0.00000
    158       1.1441      0.00000
    159       1.1497      0.00000
    160       1.1628      0.00000
    161       1.1744      0.00000
    162       1.1780      0.00000
    163       1.1982      0.00000
    164       1.2327      0.00000
    165       1.2590      0.00000
    166       1.2722      0.00000
    167       1.3004      0.00000
    168       1.3354      0.00000
    169       1.3589      0.00000
    170       1.3657      0.00000
    171       1.4084      0.00000
    172       1.4920      0.00000
    173       1.5129      0.00000
    174       1.5553      0.00000
    175       1.5719      0.00000
    176       1.6315      0.00000
    177       1.6413      0.00000
    178       1.6506      0.00000
    179       1.6656      0.00000
    180       1.6718      0.00000
    181       1.6961      0.00000
    182       1.6994      0.00000
    183       1.7063      0.00000
    184       1.7209      0.00000
    185       1.7391      0.00000
    186       1.7736      0.00000
    187       1.7848      0.00000
    188       1.8278      0.00000
    189       1.8365      0.00000
    190       1.8472      0.00000
    191       1.8531      0.00000
    192       1.8797      0.00000


--------------------------------------------------------------------------------------------------------


 soft charge-density along one line, spin component           1
         0         1         2         3         4         5         6         7         8         9
 total charge-density along one line
 
 pseudopotential strength for first ion, spin component:           1
 -8.244  -0.015   0.022  -0.012   0.007  -8.405  -0.015   0.021
 -0.015  -8.225  -0.013  -0.020   0.011  -0.015  -8.386  -0.012
  0.022  -0.013  -8.241  -0.015   0.006   0.021  -0.012  -8.402
 -0.012  -0.020  -0.015  -8.234  -0.015  -0.012  -0.020  -0.015
  0.007   0.011   0.006  -0.015  -8.265   0.006   0.011   0.006
 -8.405  -0.015   0.021  -0.012   0.006  -8.549  -0.015   0.021
 -0.015  -8.386  -0.012  -0.020   0.011  -0.015  -8.531  -0.012
  0.021  -0.012  -8.402  -0.015   0.006   0.021  -0.012  -8.547
 -0.012  -0.020  -0.015  -8.396  -0.015  -0.012  -0.019  -0.014
  0.006   0.011   0.006  -0.015  -8.426   0.006   0.011   0.006
  0.015   0.011  -0.007   0.013   0.004   0.015   0.011  -0.007
  0.022   0.015  -0.010   0.019   0.005   0.022   0.015  -0.010
 -0.024  -0.013   0.011   0.000   0.021  -0.023  -0.013   0.011
  0.000  -0.019  -0.019  -0.024   0.000   0.000  -0.019  -0.018
 -0.017   0.000   0.014  -0.013  -0.025  -0.017   0.000   0.014
 -0.027  -0.014   0.013   0.000   0.025  -0.026  -0.014   0.013
  0.000  -0.022  -0.022  -0.027   0.000   0.000  -0.022  -0.022
 -0.019   0.000   0.017  -0.014  -0.029  -0.019   0.000   0.016
 total augmentation occupancy for first ion, spin component:           1
  3.177   0.166  -0.194   0.144   0.081  -1.023  -0.189   0.247  -0.165   0.004  -0.788   0.299  -0.096  -0.028  -0.084  -0.021
  0.166   2.998  -0.019   0.185  -0.098  -0.190  -0.816  -0.071  -0.246   0.111  -0.524   0.195  -0.053  -0.066  -0.029  -0.014
 -0.194  -0.019   2.807  -0.009  -0.048   0.246  -0.070  -0.840  -0.085   0.069   0.333  -0.126   0.042  -0.039   0.057   0.010
  0.144   0.185  -0.009   3.104   0.139  -0.165  -0.246  -0.087  -0.941  -0.165  -0.653   0.245  -0.029  -0.084  -0.067   0.003
  0.081  -0.098  -0.048   0.139   2.906   0.004   0.110   0.069  -0.164  -1.032  -0.204   0.078   0.049  -0.007  -0.081   0.017
 -1.023  -0.190   0.246  -0.165   0.004   0.864   0.210  -0.290   0.182  -0.073   0.718  -0.286   0.137   0.029   0.105  -0.004
 -0.189  -0.816  -0.070  -0.246   0.110   0.210   0.633   0.143   0.296  -0.122   0.475  -0.185   0.069   0.101   0.030  -0.001
  0.247  -0.071  -0.840  -0.087   0.069  -0.290   0.143   0.832   0.163  -0.087  -0.305   0.119  -0.064   0.087  -0.087   0.002
 -0.165  -0.246  -0.085  -0.941  -0.164   0.182   0.296   0.163   0.775   0.186   0.591  -0.232   0.030   0.125   0.084  -0.002
  0.004   0.111   0.069  -0.165  -1.032  -0.073  -0.122  -0.087   0.186   1.099   0.189  -0.075  -0.102   0.007   0.135   0.004
 -0.788  -0.524   0.333  -0.653  -0.204   0.718   0.475  -0.305   0.591   0.189   4.267  -1.349   0.232   0.171   0.298  -0.011
  0.299   0.195  -0.126   0.245   0.078  -0.286  -0.185   0.119  -0.232  -0.075  -1.349   0.442  -0.084  -0.062  -0.108   0.004
 -0.096  -0.053   0.042  -0.029   0.049   0.137   0.069  -0.064   0.030  -0.102   0.232  -0.084   0.043   0.009   0.014  -0.003
 -0.028  -0.066  -0.039  -0.084  -0.007   0.029   0.101   0.087   0.125   0.007   0.171  -0.062   0.009   0.037   0.011  -0.001
 -0.084  -0.029   0.057  -0.067  -0.081   0.105   0.030  -0.087   0.084   0.135   0.298  -0.108   0.014   0.011   0.051  -0.001
 -0.021  -0.014   0.010   0.003   0.017  -0.004  -0.001   0.002  -0.002   0.004  -0.011   0.004  -0.003  -0.001  -0.001   0.001
  0.003  -0.018  -0.014  -0.023   0.001  -0.002  -0.003  -0.003  -0.003  -0.001  -0.008   0.003  -0.001  -0.002  -0.001   0.000
 -0.017   0.003   0.011  -0.012  -0.021  -0.003  -0.002   0.003  -0.002  -0.004  -0.014   0.005  -0.001  -0.001  -0.003   0.000


------------------------ aborting loop because EDIFF is reached ----------------------------------------


    FORLOC:  cpu time      0.0405: real time      0.0404
    FORHF :  cpu time     21.0089: real time     21.0439
    FORNL :  cpu time      0.3465: real time      0.3464
    FORCOR:  cpu time      1.0557: real time      1.0944
    OFIELD:  cpu time      0.0003: real time      0.0003
    FORVDW:  cpu time      0.0554: real time      0.0859

 VOLUME and BASIS-vectors are now :
 -----------------------------------------------------------------------------
  energy-cutoff  :      520.00
  volume of cell :    13405.53
      direct lattice vectors                 reciprocal lattice vectors
    21.138852197  0.000000000  0.000000000     0.047306258  0.000000000  0.000000000
     0.000000000 21.138852197  0.000000000     0.000000000  0.047306258  0.000000000
     0.000000000  0.000000000 30.000000000     0.000000000  0.000000000  0.033333333

  length of vectors
    21.138852197 21.138852197 30.000000000     0.047306258  0.047306258  0.033333333


 FORCES acting on ions:
    Electron-Ion                     Ewald-Force                    Non-Local-Force
 -----------------------------------------------------------------------------------------------
   0.811E+03 0.628E+03 0.474E+03   -.806E+03 -.624E+03 -.471E+03   -.494E+01 -.396E+01 -.292E+01
   0.167E+03 0.934E+03 0.669E+03   -.164E+03 -.933E+03 -.668E+03   -.292E+01 -.150E+01 -.134E+01
   -.387E+03 0.868E+03 0.649E+03   0.384E+03 -.867E+03 -.648E+03   0.293E+01 -.731E+00 -.885E+00
   -.949E+03 0.505E+03 0.364E+03   0.943E+03 -.501E+03 -.361E+03   0.615E+01 -.335E+01 -.205E+01
   0.924E+03 -.873E+02 0.702E+03   -.922E+03 0.897E+02 -.701E+03   -.202E+01 -.219E+01 -.131E+01
   -.262E+02 -.111E+02 0.894E+03   0.262E+02 0.108E+02 -.894E+03   -.465E-01 0.261E+00 -.278E+00
   -.949E+03 -.250E+03 0.627E+03   0.946E+03 0.252E+03 -.626E+03   0.236E+01 -.155E+01 -.832E+00
   0.701E+03 -.640E+03 0.700E+03   -.701E+03 0.637E+03 -.699E+03   0.302E-01 0.358E+01 -.160E+01
   -.613E+03 -.732E+03 0.680E+03   0.613E+03 0.728E+03 -.678E+03   -.686E+00 0.372E+01 -.164E+01
   0.596E+02 -.101E+04 0.510E+03   -.593E+02 0.100E+04 -.507E+03   -.511E+00 0.615E+01 -.344E+01
   0.890E+03 0.644E+03 -.383E+03   -.888E+03 -.642E+03 0.385E+03   -.220E+01 -.162E+01 -.108E+01
   -.654E+02 0.856E+03 -.368E+03   0.653E+02 -.856E+03 0.368E+03   0.127E+00 -.239E-01 0.164E+00
   -.965E+03 0.456E+03 -.480E+03   0.963E+03 -.455E+03 0.482E+03   0.286E+01 -.138E+01 -.150E+01
   0.822E+03 -.388E+03 -.301E+03   -.822E+03 0.388E+03 0.300E+03   -.239E+00 -.249E-01 0.439E+00
   -.712E+03 -.523E+03 -.350E+03   0.712E+03 0.523E+03 0.349E+03   0.118E+00 0.145E+00 0.499E+00
   0.967E+02 -.109E+04 -.342E+03   -.966E+02 0.109E+04 0.344E+03   -.320E+00 0.227E+01 -.114E+01
   0.657E+03 0.395E+03 -.925E+03   -.658E+03 -.395E+03 0.921E+03   0.849E-01 0.326E+00 0.390E+01
   -.628E+03 0.270E+03 -.988E+03   0.629E+03 -.271E+03 0.985E+03   -.431E+00 0.287E+00 0.346E+01
   0.101E+03 -.781E+03 -.909E+03   -.101E+03 0.782E+03 0.905E+03   0.564E-02 -.145E+00 0.403E+01
   0.665E+02 -.413E+02 -.122E+04   -.661E+02 0.410E+02 0.121E+04   -.647E+00 0.440E+00 0.714E+01
 -----------------------------------------------------------------------------------------------
   -.136E+00 -.536E-01 0.418E+00   -.142E-12 -.625E-12 0.682E-12   -.306E+00 0.695E+00 -.375E+00
 
 
 POSITION                                       TOTAL-FORCE (eV/Angst)
 -----------------------------------------------------------------------------------
      9.10667      4.79263     17.48041         0.410687      0.282160      0.217625
     11.81905      5.00625     17.68907        -0.103513      0.184992     -0.141052
     14.44594      5.31817     17.79364        -0.085981      0.050515     -0.047981
     17.10876      5.48755     17.88966        -0.063804      0.181911      0.152571
     10.05294      7.36352     17.61631         0.164017     -0.011422     -0.181818
     12.89594      7.66983     17.69393        -0.015169     -0.033982     -0.216525
     15.82200      7.87788     17.78178        -0.332698     -0.027564      0.052252
     11.06878      9.86158     17.55976         0.359337     -0.151372     -0.096920
     14.33937     10.09445     17.60024        -0.270773     -0.024983     -0.053197
     12.57689     12.16871     17.39436        -0.116071     -0.334087     -0.029263
     10.13674      5.68285     19.86608         0.087947      0.176777      0.225916
     12.95101      5.86320     20.08161         0.044991      0.043644     -0.106069
     15.75002      6.28136     20.16097        -0.079569      0.062660     -0.057941
     11.10263      8.43243     19.92362         0.049868     -0.072449     -0.046302
     14.34645      8.72408     20.00947        -0.042711     -0.036175      0.108920
     12.56899     10.88515     19.74814        -0.059781     -0.314518      0.277339
     11.26704      6.72409     22.08029         0.004172     -0.046622     -0.010801
     14.22880      7.04397     22.22443         0.110781     -0.064004     -0.042349
     12.57657      9.43471     22.02315         0.036879      0.028794      0.008754
     12.57349      7.78308     24.18661        -0.098608      0.105728     -0.013160
 -----------------------------------------------------------------------------------
    total drift:                               -0.236079      0.351657     -0.046630


--------------------------------------------------------------------------------------------------------



  FREE ENERGIE OF THE ION-ELECTRON SYSTEM (eV)
  ---------------------------------------------------
  free  energy   TOTEN  =       -61.51382634 eV

  energy  without entropy=      -61.51382634  energy(sigma->0) =      -61.51382634
 


--------------------------------------------------------------------------------------------------------


    POTLOK:  cpu time      1.0339: real time      1.0334


--------------------------------------------------------------------------------------------------------


     LOOP+:  cpu time   1162.3948: real time   1165.2484
    4ORBIT:  cpu time      0.0000: real time      0.0000

 total amount of memory used by VASP MPI-rank0  1545021. kBytes
=======================================================================

   base      :      30000. kBytes
   nonlr-proj:       9095. kBytes
   fftplans  :      40795. kBytes
   grid      :      28135. kBytes
   one-center:         77. kBytes
   HF        :         64. kBytes
   wavefun   :      13020. kBytes
   fock_wrk  :    1423835. kBytes
 
  
  
 General timing and accounting informations for this job:
 ========================================================
  
                  Total CPU time used (sec):     1185.682
                            User time (sec):     1052.519
                          System time (sec):      133.162
                         Elapsed time (sec):     1189.700
  
                   Maximum memory used (kb):     3922488.
                   Average memory used (kb):          N/A
  
                          Minor page faults:      1265544
                          Major page faults:            0
                 Voluntary context switches:        13863
