 vasp.6.4.1 05Apr23 (build May 06 2023 19:47:20) complex                        
  
 executed on             LinuxIFC date 2023.07.03  23:48:31
 running  768 mpi-ranks, with    1 threads/rank, on   48 nodes
 distrk:  each k-point on  768 cores,    1 groups
 distr:  one band on NCORE=  16 cores,   48 groups


--------------------------------------------------------------------------------------------------------


 INCAR:
   SYSTEM = MgO-rocksalt
   ISMEAR = 0
   SIGMA = 0.05
   EDIFF = 1E-6
   ALGO = ALL
   ISTART = 0
   IBRION = -1
   NSW = 0
   ISYM = 2
   DIPOL = 0.5 0.5 0.5
   IDIPOL = 3
   LDIPOL = .TRUE.
   GGA = RE
   IVDW = 11
   ENCUT = 520
   PREC = Accurate
   LASPH = .TRUE.
   LREAL = Auto
   ISPIN = 1
   NELM = 200
   NELMIN = 8
   NCORE = 16
   KPAR = 1
   LWAVE = .FALSE.
   LCHARG = .FALSE.

 POTCAR:    PAW_PBE Ag 02Apr2005                  
 POTCAR:    PAW_PBE Ag 02Apr2005                  
   SHA256 =  6550cfa3543261e132c169e1b98a529204624d72be14e2da2e0242bcb74a174d Ag/POTCAR             
   COPYR  = (c) Copyright 02Apr2005 Georg Kresse                                                    
   COPYR  = This file is part of the software VASP. Any use, copying, and all other rights are regul
   COPYR  = If you do not have a valid VASP license, you may not use, copy or distribute this file. 
   VRHFIN =Ag : s1 d10                                                                              
   LEXCH  = PE                                                                                      
   EATOM  =  1037.2675 eV,   76.2370 Ry                                                             
                                                                                                    
   TITEL  = PAW_PBE Ag 02Apr2005                                                                    
   LULTRA =        F    use ultrasoft PP ?                                                          
   IUNSCR =        1    unscreen: 0-lin 1-nonlin 2-no                                               
   RPACOR =    2.000    partial core radius                                                         
   POMASS =  107.868; ZVAL   =   11.000    mass and valenz                                          
   RCORE  =    2.500    outmost cutoff radius                                                       
   RWIGS  =    2.840; RWIGS  =    1.503    wigner-seitz radius (au A)                               
   ENMAX  =  249.844; ENMIN  =  187.383 eV                                                          
   ICORE  =        3    local potential                                                             
   LCOR   =        T    correct aug charges                                                         
   LPAW   =        T    paw PP                                                                      
   EAUG   =  412.496                                                                                
   DEXC   =    0.000                                                                                
   RMAX   =    2.560    core radius for proj-oper                                                   
   RAUG   =    1.300    factor for augmentation sphere                                              
   RDEP   =    2.576    radius for radial grids                                                     
   RDEPT  =    2.072    core radius for aug-charge                                                  
                                                                                                    
   Atomic configuration                                                                             
   12 entries                                                                                       
     n  l   j            E        occ.                                                              
     1  0  0.50    -25324.9161   2.0000                                                             
     2  0  0.50     -3728.5341   2.0000                                                             
     2  1  1.50     -3344.0404   6.0000                                                             
     3  0  0.50      -683.5581   2.0000                                                             
     3  1  1.50      -557.3225   6.0000                                                             
     3  2  2.50      -358.3853  10.0000                                                             
     4  0  0.50       -95.0341   2.0000                                                             
     4  1  1.50       -58.5511   6.0000                                                             
     4  2  2.50        -7.4440  10.0000                                                             
     5  0  0.50        -4.4045   1.0000                                                             
     5  1  0.50        -1.3606   0.0000                                                             
     4  3  2.50        -1.3606   0.0000                                                             
   Description                                                                                      
     l       E           TYP  RCUT    TYP  RCUT                                                     
     2     -7.4439781     23  2.400                                                                 
     2     -8.8045607     23  2.400                                                                 
     0     -4.4044681     23  2.400                                                                 
     0      1.9520038     23  2.400                                                                 
     1     -1.3605826     23  2.500                                                                 
     1     27.2116520     23  2.500                                                                 
     3     -4.0817478     23  2.400                                                                 
  local pseudopotential read in
  partial core-charges read in
  partial kinetic energy density read in
  atomic valenz-charges read in
  non local Contribution for L=           2  read in
    real space projection operators read in
  non local Contribution for L=           2  read in
    real space projection operators read in
  non local Contribution for L=           0  read in
    real space projection operators read in
  non local Contribution for L=           0  read in
    real space projection operators read in
  non local Contribution for L=           1  read in
    real space projection operators read in
  non local Contribution for L=           1  read in
    real space projection operators read in
    PAW grid and wavefunctions read in
 
   number of l-projection  operators is LMAX  =           6
   number of lm-projection operators is LMMAX =          18
 
 -----------------------------------------------------------------------------
|                                                                             |
|               ----> ADVICE to this user running VASP <----                  |
|                                                                             |
|     You have a (more or less) 'small supercell' and for smaller cells       |
|     it is recommended to use the reciprocal-space projection scheme!        |
|     The real-space optimization is not efficient for small cells and it     |
|     is also less accurate ...                                               |
|     Therefore, set LREAL=.FALSE. in the INCAR file.                         |
|                                                                             |
 -----------------------------------------------------------------------------

 Optimization of the real space projectors (new method)

 maximal supplied QI-value         = 15.12
 optimisation between [QCUT,QGAM] = [ 11.64, 23.28] = [ 37.95,151.78] Ry 
 Optimized for a Real-space Cutoff    1.45 Angstroem

   l    n(q)    QCUT    max X(q) W(low)/X(q) W(high)/X(q)  e(spline) 
   2      9    11.641    53.897    0.22E-03    0.42E-04    0.28E-06
   2      9    11.641    52.416    0.23E-03    0.44E-04    0.29E-06
   0     10    11.641   122.045    0.51E-04    0.25E-04    0.16E-06
   0     10    11.641    73.629    0.49E-04    0.24E-04    0.16E-06
   1     10    11.641    15.255    0.99E-04    0.55E-04    0.11E-06
   1     10    11.641     9.562    0.81E-04    0.47E-04    0.95E-07
 -----------------------------------------------------------------------------
|                                                                             |
|               ----> ADVICE to this user running VASP <----                  |
|                                                                             |
|     You enforced a specific xc type in the INCAR file but a different       |
|     type was found in the POTCAR file.                                      |
|     I HOPE YOU KNOW WHAT YOU ARE DOING!                                     |
|                                                                             |
 -----------------------------------------------------------------------------

  PAW_PBE Ag 02Apr2005                  :
 energy of atom  1       EATOM=-1037.2675
 kinetic energy error for atom=    0.0047 (will be added to EATOM!!)
 
 
 POSCAR: Ag
  positions in direct lattice
  No initial velocities read in
 exchange correlation table for  LEXCH =       40
   RHO(1)=    0.500       N(1)  =     2000
   RHO(2)=  100.500       N(2)  =     4000
 


--------------------------------------------------------------------------------------------------------


 ion  position               nearest neighbor table
   1  0.500  0.600  0.746-   2 2.56
   2  0.500  0.600  0.630-   1 2.56
 
  LATTYP: Found a simple tetragonal cell.
 ALAT       =    21.1388521970
 C/A-ratio  =     1.0461251639
  
  Lattice vectors:
  
 A1 = (  21.1388521970,   0.0000000000,   0.0000000000)
 A2 = (   0.0000000000,  21.1388521970,   0.0000000000)
 A3 = (   0.0000000000,   0.0000000000,  22.1138852197)


Analysis of symmetry for initial positions (statically):
=====================================================================
 Subroutine PRICEL returns:
 Original cell was already a primitive cell.
 

 Routine SETGRP: Setting up the symmetry group for a 
 simple tetragonal supercell.


 Subroutine GETGRP returns: Found 16 space group operations
 (whereof  2 operations were pure point group operations)
 out of a pool of 16 trial point group operations.


The static configuration has the point symmetry C_1h.
 The point group associated with its full space group is D_4h.


Analysis of symmetry for dynamics (positions and initial velocities):
=====================================================================
 Subroutine PRICEL returns:
 Original cell was already a primitive cell.
 

 Routine SETGRP: Setting up the symmetry group for a 
 simple tetragonal supercell.


 Subroutine GETGRP returns: Found 16 space group operations
 (whereof  2 operations were pure point group operations)
 out of a pool of 16 trial point group operations.


The dynamic configuration has the point symmetry C_1h.
 The point group associated with its full space group is D_4h.


 Subroutine INISYM returns: Found 16 space group operations
 (whereof  2 operations are pure point group operations),
 and found     1 'primitive' translations


----------------------------------------------------------------------------------------

                                     Primitive cell                                     

  volume of cell :    9881.6133

  direct lattice vectors                    reciprocal lattice vectors
    21.138852197  0.000000000  0.000000000     0.047306258  0.000000000  0.000000000
     0.000000000 21.138852197  0.000000000     0.000000000  0.047306258  0.000000000
     0.000000000  0.000000000 22.113885220     0.000000000  0.000000000  0.045220457

  length of vectors
    21.138852197 21.138852197 22.113885220     0.047306258  0.047306258  0.045220457

  position of ions in fractional coordinates (direct lattice)
     0.499999974  0.599999938  0.745598720
     0.499999974  0.599999938  0.629641752

  ion indices of the primitive-cell ions
   primitive index   ion index
                 1           1
                 2           2

----------------------------------------------------------------------------------------

 
 
 KPOINTS: KPOINTS created by Atomic Simulation Env

Automatic generation of k-mesh.
 Grid dimensions read from file:
 generate k-points for:    1    1    1

 Generating k-lattice:

  Cartesian coordinates                     Fractional coordinates (reciprocal lattice)
     0.047306258  0.000000000  0.000000000     1.000000000  0.000000000  0.000000000
     0.000000000  0.047306258  0.000000000     0.000000000  1.000000000  0.000000000
     0.000000000  0.000000000  0.045220457     0.000000000  0.000000000  1.000000000

  Length of vectors
     0.047306258  0.047306258  0.045220457

  Shift w.r.t. Gamma in fractional coordinates (k-lattice)
     0.000000000  0.000000000  0.000000000

 
 Subroutine IBZKPT returns following result:
 ===========================================
 
 Found      1 irreducible k-points:
 
 Following reciprocal coordinates:
            Coordinates               Weight
  0.000000  0.000000  0.000000      1.000000
 
 Following cartesian coordinates:
            Coordinates               Weight
  0.000000  0.000000  0.000000      1.000000
 


--------------------------------------------------------------------------------------------------------




 Dimension of arrays:
   k-points           NKPTS =      1   k-points in BZ     NKDIM =      1   number of bands    NBANDS=     48
   number of dos      NEDOS =    301   number of ions     NIONS =      2
   non local maximal  LDIM  =      6   non local SUM 2l+1 LMDIM =     18
   total plane-waves  NPLWV = ******
   max r-space proj   IRMAX =   5559   max aug-charges    IRDMAX=  21597
   dimension x,y,z NGX =   160 NGY =  160 NGZ =  168
   dimension x,y,z NGXF=   320 NGYF=  320 NGZF=  336
   support grid    NGXF=   320 NGYF=  320 NGZF=  336
   ions per type =               2
   NGX,Y,Z   is equivalent  to a cutoff of  12.58, 12.58, 12.63 a.u.
   NGXF,Y,Z  is equivalent  to a cutoff of  25.17, 25.17, 25.26 a.u.

 SYSTEM =  MgO-rocksalt                            
 POSCAR =  Ag                                      

 Startparameter for this run:
   NWRITE =      2    write-flag & timer
   PREC   = accura    normal or accurate (medium, high low for compatibility)
   ISTART =      0    job   : 0-new  1-cont  2-samecut
   ICHARG =      2    charge: 1-file 2-atom 10-const
   ISPIN  =      1    spin polarized calculation?
   LNONCOLLINEAR =      F non collinear calculations
   LSORBIT =      F    spin-orbit coupling
   INIWAV =      1    electr: 0-lowe 1-rand  2-diag
   LASPH  =      T    aspherical Exc in radial PAW
 Electronic Relaxation 1
   ENCUT  =  520.0 eV  38.22 Ry    6.18 a.u.  39.30 39.30 41.12*2*pi/ulx,y,z
   ENINI  =  520.0     initial cutoff
   ENAUG  =  412.5 eV  augmentation charge cutoff
   NELM   =    200;   NELMIN=  8; NELMDL= -5     # of ELM steps 
   EDIFF  = 0.1E-05   stopping-criterion for ELM
   LREAL  =      T    real-space projection
   NLSPLINE    = F    spline interpolate recip. space projectors
   LCOMPAT=      F    compatible to vasp.4.4
   GGA_COMPAT  = T    GGA compatible to vasp.4.4-vasp.4.6
   LMAXPAW     = -100 max onsite density
   LMAXMIX     =    2 max onsite mixed and CHGCAR
   VOSKOWN=      0    Vosko Wilk Nusair interpolation
   ROPT   =   -0.00025
 Ionic relaxation
   EDIFFG = 0.1E-04   stopping-criterion for IOM
   NSW    =      0    number of steps for IOM
   NBLOCK =      1;   KBLOCK =      1    inner block; outer block 
   IBRION =     -1    ionic relax: 0-MD 1-quasi-New 2-CG
   NFREE  =      0    steps in history (QN), initial steepest desc. (CG)
   ISIF   =      2    stress and relaxation
   IWAVPR =     10    prediction:  0-non 1-charg 2-wave 3-comb
   ISYM   =      2    0-nonsym 1-usesym 2-fastsym
   LCORR  =      T    Harris-Foulkes like correction to forces

   POTIM  = 0.5000    time-step for ionic-motion
   TEIN   =    0.0    initial temperature
   TEBEG  =    0.0;   TEEND  =   0.0 temperature during run
   SMASS  =  -3.00    Nose mass-parameter (am)
   estimated Nose-frequenzy (Omega)   =  0.10E-29 period in steps = 0.13E+47 mass=  -0.102E-25a.u.
   SCALEE = 1.0000    scale energy and forces
   NPACO  =    256;   APACO  = 10.0  distance and # of slots for P.C.
   PSTRESS=    0.0 pullay stress

  Mass of Ions in am
   POMASS = 107.87
  Ionic Valenz
   ZVAL   =  11.00
  Atomic Wigner-Seitz radii
   RWIGS  =  -1.00
  virtual crystal weights 
   VCA    =   1.00
   NELECT =      22.0000    total number of electrons
   NUPDOWN=      -1.0000    fix difference up-down

 DOS related values:
   EMIN   =  10.00;   EMAX   =-10.00  energy-range for DOS
   EFERMI =   0.00;   METHOD = LEGACY      
   ISMEAR =     0;   SIGMA  =   0.05  broadening in eV -4-tet -1-fermi 0-gaus

 Electronic relaxation 2 (details)
   IALGO  =     58    algorithm
   LDIAG  =      T    sub-space diagonalisation (order eigenvalues)
   LSUBROT=      F    optimize rotation matrix (better conditioning)
   TURBO    =      0    0=normal 1=particle mesh
   IRESTART =      0    0=no restart 2=restart with 2 vectors
   NREBOOT  =      0    no. of reboots
   NMIN     =      0    reboot dimension
   EREF     =   0.00    reference energy to select bands
   IMIX   =      4    mixing-type and parameters
     AMIX     =   0.40;   BMIX     =  1.00
     AMIX_MAG =   1.60;   BMIX_MAG =  1.00
     AMIN     =   0.10
     WC   =   100.;   INIMIX=   1;  MIXPRE=   1;  MAXMIX= -45

 Intra band minimization:
   WEIMIN = 0.0000     energy-eigenvalue tresh-hold
   EBREAK =  0.52E-08  absolut break condition
   DEPER  =   0.30     relativ break condition  

   TIME   =   0.40     timestep for ELM

  volume/ion in A,a.u.               =    4940.81     33342.21
  Fermi-wavevector in a.u.,A,eV,Ry     =   0.213767  0.403960  0.621734  0.045696
  Thomas-Fermi vector in A             =   0.985879
 
 Write flags
   LWAVE        =      F    write WAVECAR
   LDOWNSAMPLE  =      F    k-point downsampling of WAVECAR
   LCHARG       =      F    write CHGCAR
   LVTOT        =      F    write LOCPOT, total local potential
   LVHAR        =      F    write LOCPOT, Hartree potential only
   LELF         =      F    write electronic localiz. function (ELF)
   LORBIT       =      0    0 simple, 1 ext, 2 COOP (PROOUT), +10 PAW based schemes


 Dipole corrections
   LMONO  =      F    monopole corrections only (constant potential shift)
   LDIPOL =      T    correct potential (dipole corrections)
   IDIPOL =      3    1-x, 2-y, 3-z, 4-all directions 
   EPSILON=  1.0000000 bulk dielectric constant

 Exchange correlation treatment:
   GGA     =    RE    GGA type
   LEXCH   =    40    internal setting for exchange type
   LIBXC   =     F    Libxc                    
   VOSKOWN =     0    Vosko Wilk Nusair interpolation
   LHFCALC =     F    Hartree Fock is set to
   LHFONE  =     F    Hartree Fock one center treatment
   AEXX    =    0.0000 exact exchange contribution

 Linear response parameters
   LEPSILON=     F    determine dielectric tensor
   LRPA    =     F    only Hartree local field effects (RPA)
   LNABLA  =     F    use nabla operator in PAW spheres
   LVEL    =     F    velocity operator in full k-point grid
   CSHIFT  =0.1000    complex shift for real part using Kramers Kronig
   OMEGAMAX=  -1.0    maximum frequency
   DEG_THRESHOLD= 0.2000000E-02 threshold for treating states as degnerate
   RTIME   =   -0.100 relaxation time in fs
  (WPLASMAI=    0.000 imaginary part of plasma frequency in eV, 0.658/RTIME)
   DFIELD  = 0.0000000 0.0000000 0.0000000 field for delta impulse in time
 
  Optional k-point grid parameters
   LKPOINTS_OPT  =     F    use optional k-point grid
   KPOINTS_OPT_MODE=     1    mode for optional k-point grid
 
 Orbital magnetization related:
   ORBITALMAG=     F  switch on orbital magnetization
   LCHIMAG   =     F  perturbation theory with respect to B field
   DQ        =  0.001000  dq finite difference perturbation B field
   LLRAUG    =     F  two centre corrections for induced B field
   LBONE     =     F  B-component reconstruction in AE one-centre
   LVGVCALC  =     T  calculate vGv susceptibility
   LVGVAPPL  =     F  apply vGv susceptibility instead of pGv for G=0

 Random number generation:
   RANDOM_GENERATOR = DEFAULT
   PCG_SEED         = not used


--------------------------------------------------------------------------------------------------------


 Static calculation
 charge density and potential will be updated during run
 non-spin polarized calculation
 Conjugate gradient for all bands (Freysoldt, et al. PRB 79, 241103 (2009))
 preconditioned conjugated gradient                                        
 perform sub-space diagonalisation
    before iterative eigenvector-optimisation
 modified Broyden-mixing scheme, WC =      100.0
 initial mixing is a Kerker type mixing with AMIX =  0.4000 and BMIX =      1.0000
 Hartree-type preconditioning will be used
 using additional bands           37
 real space projection scheme for non local part
 use partial core corrections
 no Harris-corrections to forces 
 use gradient corrections 
 use of overlap-Matrix (Vanderbilt PP)
 Gauss-broadening in eV      SIGMA  =   0.05


--------------------------------------------------------------------------------------------------------


  energy-cutoff  :      520.00
  volume of cell :     9881.61
      direct lattice vectors                 reciprocal lattice vectors
    21.138852197  0.000000000  0.000000000     0.047306258  0.000000000  0.000000000
     0.000000000 21.138852197  0.000000000     0.000000000  0.047306258  0.000000000
     0.000000000  0.000000000 22.113885220     0.000000000  0.000000000  0.045220457

  length of vectors
    21.138852197 21.138852197 22.113885220     0.047306258  0.047306258  0.045220457


 
 k-points in units of 2pi/SCALE and weight: KPOINTS created by Atomic Simulation Env
   0.00000000  0.00000000  0.00000000       1.000
 
 k-points in reciprocal lattice and weights: KPOINTS created by Atomic Simulation Env
   0.00000000  0.00000000  0.00000000       1.000
 
 position of ions in fractional coordinates (direct lattice) 
   0.49999997  0.59999994  0.74559872
   0.49999997  0.59999994  0.62964175
 
 position of ions in cartesian coordinates  (Angst):
  10.56942555 12.68331001 16.48808451
  10.56942555 12.68331001 13.92382543
 


--------------------------------------------------------------------------------------------------------


 k-point   1 :   0.0000 0.0000 0.0000  plane waves:  265979

 maximum and minimum number of plane-waves per node :     16635    16606

 maximum number of plane-waves:    265979
 maximum index in each direction: 
   IXMAX=   39   IYMAX=   39   IZMAX=   41
   IXMIN=  -39   IYMIN=  -39   IZMIN=  -41


 real space projection operators:
  total allocation   :       1497.94 KBytes
  max/ min on nodes  :        103.50         81.84


 parallel 3D FFT for wavefunctions:
    minimum data exchange during FFTs selected (reduces bandwidth)
 parallel 3D FFT for charge:
    minimum data exchange during FFTs selected (reduces bandwidth)


 total amount of memory used by VASP MPI-rank0    58457. kBytes
=======================================================================

   base      :      30000. kBytes
   nonlr-proj:        314. kBytes
   fftplans  :      11368. kBytes
   grid      :      15959. kBytes
   one-center:         15. kBytes
   wavefun   :        801. kBytes
 
     INWAV:  cpu time      0.0004: real time      0.0005
 Broyden mixing: mesh for mixing (old mesh)
   NGX = 79   NGY = 79   NGZ = 83
  (NGX  =320   NGY  =320   NGZ  =336)
  gives a total of 518003 points

 initial charge density was supplied:
 charge density of overlapping atoms calculated
 number of electron      22.0000000 magnetization 
 keeping initial charge density in first step


--------------------------------------------------------------------------------------------------------


 Maximum index for non-local projection operator          368
 Maximum index for augmentation-charges            0 (set IRDMAX)


--------------------------------------------------------------------------------------------------------


 First call to EWALD:  gamma=   0.083
 Maximum number of real-space cells 3x 3x 3
 Maximum number of reciprocal cells 3x 3x 3

    FEWALD:  cpu time      0.0076: real time      0.0082


--------------------------------------- Ionic step        1  -------------------------------------------




--------------------------------------- Iteration      1(   1)  ---------------------------------------


    POTLOK:  cpu time      0.3395: real time      0.3446
    SETDIJ:  cpu time      0.7331: real time      0.7346
    TRIAL :  cpu time      0.2724: real time      0.3260
    CORREC:  cpu time      0.0194: real time      0.0194
    --------------------------------------------
      LOOP:  cpu time      1.3673: real time      1.4283

 eigenvalue-minimisations  :    96
 total energy-change (2. order) : 0.1582351E+03  (-0.3126292E+03)
 number of electron      22.0000000 magnetization 
 augmentation part       22.0000000 magnetization 

 DIPCOR: dipole corrections for dipol
 direction  3 min pos     1,
 dipolmoment           0.000000      0.000000     -0.000211 electrons x Angstroem
 Tr[quadrupol]     -4028.899059

 energy correction for charged system         0.000000 eV
 dipol+quadrupol energy correction           -0.000000 eV
 added-field ion interaction          0.000381 eV  (added to PSCEN)


 Free energy of the ion-electron system (eV)
  ---------------------------------------------------
  alpha Z        PSCENC =         0.34468833
  Ewald energy   TEWEN  =       221.20106937
  -Hartree energ DENC   =     -2203.22206508
  -exchange      EXHF   =         0.00000000
  -V(xc)+E(xc)   XCENC  =       -24.98625727
  PAW double counting   =      2008.24765832    -1914.15143096
  entropy T*S    EENTRO =        -0.01723416
  eigenvalues    EBANDS =        -2.56431483
  atomic energy  EATOM  =      2073.38295078
  ---------------------------------------------------
  free energy    TOTEN  =       158.23506450 eV

  energy without entropy =      158.25229866  energy(sigma->0) =      158.24368158


--------------------------------------------------------------------------------------------------------




--------------------------------------- Iteration      1(   2)  ---------------------------------------


    TRIAL :  cpu time      0.4318: real time      0.4337
    CORREC:  cpu time      0.0009: real time      0.0009
    --------------------------------------------
      LOOP:  cpu time      0.4821: real time      0.4951

 eigenvalue-minimisations  :   192
 total energy-change (2. order) :-0.1420970E+03  (-0.1418288E+03)
 number of electron      22.0000000 magnetization 
 augmentation part       22.0000000 magnetization 

 DIPCOR: dipole corrections for dipol
 direction  3 min pos     1,
 dipolmoment           0.000000      0.000000     -0.000211 electrons x Angstroem
 Tr[quadrupol]     -4028.899059

 energy correction for charged system         0.000000 eV
 dipol+quadrupol energy correction           -0.000000 eV
 added-field ion interaction          0.000381 eV  (added to PSCEN)


 Free energy of the ion-electron system (eV)
  ---------------------------------------------------
  alpha Z        PSCENC =         0.34468833
  Ewald energy   TEWEN  =       221.20106937
  -Hartree energ DENC   =     -2203.22206508
  -exchange      EXHF   =         0.00000000
  -V(xc)+E(xc)   XCENC  =       -24.98625727
  PAW double counting   =      2008.24765832    -1914.15143096
  entropy T*S    EENTRO =        -0.00000000
  eigenvalues    EBANDS =      -144.67857458
  atomic energy  EATOM  =      2073.38295078
  ---------------------------------------------------
  free energy    TOTEN  =        16.13803891 eV

  energy without entropy =       16.13803891  energy(sigma->0) =       16.13803891


--------------------------------------------------------------------------------------------------------




--------------------------------------- Iteration      1(   3)  ---------------------------------------


    TRIAL :  cpu time      0.1856: real time      0.1855
    CORREC:  cpu time      0.0020: real time      0.0020
    --------------------------------------------
      LOOP:  cpu time      0.1895: real time      0.2279

 eigenvalue-minimisations  :    96
 total energy-change (2. order) :-0.1824415E+02  (-0.1824415E+02)
 number of electron      22.0000000 magnetization 
 augmentation part       22.0000000 magnetization 

 DIPCOR: dipole corrections for dipol
 direction  3 min pos     1,
 dipolmoment           0.000000      0.000000     -0.000211 electrons x Angstroem
 Tr[quadrupol]     -4028.899059

 energy correction for charged system         0.000000 eV
 dipol+quadrupol energy correction           -0.000000 eV
 added-field ion interaction          0.000381 eV  (added to PSCEN)


 Free energy of the ion-electron system (eV)
  ---------------------------------------------------
  alpha Z        PSCENC =         0.34468833
  Ewald energy   TEWEN  =       221.20106937
  -Hartree energ DENC   =     -2203.22206508
  -exchange      EXHF   =         0.00000000
  -V(xc)+E(xc)   XCENC  =       -24.98625727
  PAW double counting   =      2008.24765832    -1914.15143096
  entropy T*S    EENTRO =        -0.00000000
  eigenvalues    EBANDS =      -162.92272576
  atomic energy  EATOM  =      2073.38295078
  ---------------------------------------------------
  free energy    TOTEN  =        -2.10611227 eV

  energy without entropy =       -2.10611227  energy(sigma->0) =       -2.10611227


--------------------------------------------------------------------------------------------------------




--------------------------------------- Iteration      1(   4)  ---------------------------------------


    TRIAL :  cpu time      0.1683: real time      0.1682
    CORREC:  cpu time      0.0010: real time      0.0010
    --------------------------------------------
      LOOP:  cpu time      0.1714: real time      0.1900

 eigenvalue-minimisations  :    96
 total energy-change (2. order) :-0.1079612E+00  (-0.1079612E+00)
 number of electron      22.0000000 magnetization 
 augmentation part       22.0000000 magnetization 

 DIPCOR: dipole corrections for dipol
 direction  3 min pos     1,
 dipolmoment           0.000000      0.000000     -0.000211 electrons x Angstroem
 Tr[quadrupol]     -4028.899059

 energy correction for charged system         0.000000 eV
 dipol+quadrupol energy correction           -0.000000 eV
 added-field ion interaction          0.000381 eV  (added to PSCEN)


 Free energy of the ion-electron system (eV)
  ---------------------------------------------------
  alpha Z        PSCENC =         0.34468833
  Ewald energy   TEWEN  =       221.20106937
  -Hartree energ DENC   =     -2203.22206508
  -exchange      EXHF   =         0.00000000
  -V(xc)+E(xc)   XCENC  =       -24.98625727
  PAW double counting   =      2008.24765832    -1914.15143096
  entropy T*S    EENTRO =        -0.00000000
  eigenvalues    EBANDS =      -163.03068697
  atomic energy  EATOM  =      2073.38295078
  ---------------------------------------------------
  free energy    TOTEN  =        -2.21407348 eV

  energy without entropy =       -2.21407348  energy(sigma->0) =       -2.21407348


--------------------------------------------------------------------------------------------------------




--------------------------------------- Iteration      1(   5)  ---------------------------------------


    TRIAL :  cpu time      0.4004: real time      0.4020
    CORREC:  cpu time      0.0007: real time      0.0007
    CHARGE:  cpu time      2.1391: real time      2.1407
    --------------------------------------------
      LOOP:  cpu time      2.5424: real time      2.5690

 eigenvalue-minimisations  :   192
 total energy-change (2. order) :-0.1726839E-02  (-0.1726839E-02)
 number of electron      21.9999999 magnetization 
 augmentation part       10.6534238 magnetization 

 DIPCOR: dipole corrections for dipol
 direction  3 min pos     1,
 dipolmoment           0.000000      0.000000     -0.000211 electrons x Angstroem
 Tr[quadrupol]     -4028.899059

 energy correction for charged system         0.000000 eV
 dipol+quadrupol energy correction           -0.000000 eV
 added-field ion interaction          0.000381 eV  (added to PSCEN)


 Free energy of the ion-electron system (eV)
  ---------------------------------------------------
  alpha Z        PSCENC =         0.34468833
  Ewald energy   TEWEN  =       221.20106937
  -Hartree energ DENC   =     -2203.22206508
  -exchange      EXHF   =         0.00000000
  -V(xc)+E(xc)   XCENC  =       -24.98625727
  PAW double counting   =      2008.24765832    -1914.15143096
  entropy T*S    EENTRO =        -0.00000000
  eigenvalues    EBANDS =      -163.03241381
  atomic energy  EATOM  =      2073.38295078
  ---------------------------------------------------
  free energy    TOTEN  =        -2.21580032 eV

  energy without entropy =       -2.21580032  energy(sigma->0) =       -2.21580032


--------------------------------------------------------------------------------------------------------




--------------------------------------- Iteration      1(   6)  ---------------------------------------


    POTLOK:  cpu time      0.4074: real time      0.4071
    SETDIJ:  cpu time      0.7358: real time      0.7367
    TRIAL :  cpu time      0.5158: real time      0.5754
    CORREC:  cpu time      3.6065: real time      3.6040
    CHARGE:  cpu time      2.0675: real time      2.0689
    --------------------------------------------
      LOOP:  cpu time      7.3363: real time      7.4041

 eigenvalue-minimisations  :     0
 total energy-change (2. order) : 0.5231571E+00  (-0.2547598E+00)
 number of electron      21.9999999 magnetization 
 augmentation part       10.6628380 magnetization 

 DIPCOR: dipole corrections for dipol
 direction  3 min pos     1,
 dipolmoment           0.000000      0.000000     -0.000902 electrons x Angstroem
 Tr[quadrupol]     -4030.888712

 energy correction for charged system         0.000000 eV
 dipol+quadrupol energy correction           -0.000000 eV
 added-field ion interaction          0.001628 eV  (added to PSCEN)


 Free energy of the ion-electron system (eV)
  ---------------------------------------------------
  alpha Z        PSCENC =         0.34435469
  Ewald energy   TEWEN  =       221.20106937
  -Hartree energ DENC   =     -2220.31058101
  -exchange      EXHF   =         0.00000000
  -V(xc)+E(xc)   XCENC  =       -24.74775845
  PAW double counting   =      2116.40558420    -2023.92107610
  entropy T*S    EENTRO =        -0.00000000
  eigenvalues    EBANDS =      -144.04718665
  atomic energy  EATOM  =      2073.38295078
  ---------------------------------------------------
  free energy    TOTEN  =        -1.69264318 eV

  energy without entropy =       -1.69264318  energy(sigma->0) =       -1.69264318


--------------------------------------------------------------------------------------------------------




--------------------------------------- Iteration      1(   7)  ---------------------------------------


    POTLOK:  cpu time      0.3042: real time      0.3043
    SETDIJ:  cpu time      0.8928: real time      0.8936
    TRIAL :  cpu time      0.2472: real time      0.2472
    CORREC:  cpu time      3.4051: real time      3.4079
    CHARGE:  cpu time      2.2059: real time      2.2069
    --------------------------------------------
      LOOP:  cpu time      7.0686: real time      7.0735

 eigenvalue-minimisations  :     0
 total energy-change (2. order) :-0.2546256E+00  (-0.2724009E-01)
 number of electron      21.9999999 magnetization 
 augmentation part       10.6945619 magnetization 

 DIPCOR: dipole corrections for dipol
 direction  3 min pos     1,
 dipolmoment           0.000000      0.000000     -0.000887 electrons x Angstroem
 Tr[quadrupol]     -4030.709684

 energy correction for charged system         0.000000 eV
 dipol+quadrupol energy correction           -0.000000 eV
 added-field ion interaction          0.001603 eV  (added to PSCEN)


 Free energy of the ion-electron system (eV)
  ---------------------------------------------------
  alpha Z        PSCENC =         0.34647131
  Ewald energy   TEWEN  =       221.20106937
  -Hartree energ DENC   =     -2210.26100864
  -exchange      EXHF   =         0.00000000
  -V(xc)+E(xc)   XCENC  =       -24.92176241
  PAW double counting   =      2102.92850703    -2010.27141486
  entropy T*S    EENTRO =        -0.00000000
  eigenvalues    EBANDS =      -154.35208134
  atomic energy  EATOM  =      2073.38295078
  ---------------------------------------------------
  free energy    TOTEN  =        -1.94726875 eV

  energy without entropy =       -1.94726875  energy(sigma->0) =       -1.94726875


--------------------------------------------------------------------------------------------------------




--------------------------------------- Iteration      1(   8)  ---------------------------------------


    POTLOK:  cpu time      0.3676: real time      0.3681
    SETDIJ:  cpu time      0.7531: real time      0.7531
    TRIAL :  cpu time      0.2683: real time      0.2691
    CORREC:  cpu time      3.3198: real time      3.3218
    CHARGE:  cpu time      2.0421: real time      2.0445
    --------------------------------------------
      LOOP:  cpu time      6.7592: real time      6.7803

 eigenvalue-minimisations  :     0
 total energy-change (2. order) :-0.2732425E-01  (-0.9141374E-02)
 number of electron      21.9999999 magnetization 
 augmentation part       10.6711313 magnetization 

 DIPCOR: dipole corrections for dipol
 direction  3 min pos     1,
 dipolmoment           0.000000      0.000000     -0.000311 electrons x Angstroem
 Tr[quadrupol]     -4030.557654

 energy correction for charged system         0.000000 eV
 dipol+quadrupol energy correction           -0.000000 eV
 added-field ion interaction          0.000562 eV  (added to PSCEN)


 Free energy of the ion-electron system (eV)
  ---------------------------------------------------
  alpha Z        PSCENC =         0.34552810
  Ewald energy   TEWEN  =       221.20106937
  -Hartree energ DENC   =     -2214.15000763
  -exchange      EXHF   =         0.00000000
  -V(xc)+E(xc)   XCENC  =       -24.79715750
  PAW double counting   =      2105.33940574    -2012.72451100
  entropy T*S    EENTRO =        -0.00000000
  eigenvalues    EBANDS =      -150.57187087
  atomic energy  EATOM  =      2073.38295078
  ---------------------------------------------------
  free energy    TOTEN  =        -1.97459301 eV

  energy without entropy =       -1.97459301  energy(sigma->0) =       -1.97459301


--------------------------------------------------------------------------------------------------------




--------------------------------------- Iteration      1(   9)  ---------------------------------------


    POTLOK:  cpu time      0.2650: real time      0.2650
    SETDIJ:  cpu time      0.7526: real time      0.7535
    TRIAL :  cpu time      0.2042: real time      0.2041
    CORREC:  cpu time      3.2107: real time      3.2133
    CHARGE:  cpu time      2.0399: real time      2.0414
    --------------------------------------------
      LOOP:  cpu time      6.4764: real time      6.4909

 eigenvalue-minimisations  :     0
 total energy-change (2. order) :-0.9131592E-02  (-0.3175282E-02)
 number of electron      21.9999999 magnetization 
 augmentation part       10.6786124 magnetization 

 DIPCOR: dipole corrections for dipol
 direction  3 min pos     1,
 dipolmoment           0.000000      0.000000     -0.000099 electrons x Angstroem
 Tr[quadrupol]     -4030.492326

 energy correction for charged system         0.000000 eV
 dipol+quadrupol energy correction           -0.000000 eV
 added-field ion interaction          0.000179 eV  (added to PSCEN)


 Free energy of the ion-electron system (eV)
  ---------------------------------------------------
  alpha Z        PSCENC =         0.34475287
  Ewald energy   TEWEN  =       221.20106937
  -Hartree energ DENC   =     -2210.00405778
  -exchange      EXHF   =         0.00000000
  -V(xc)+E(xc)   XCENC  =       -24.91265301
  PAW double counting   =      2100.86745155    -2008.16836410
  entropy T*S    EENTRO =        -0.00000000
  eigenvalues    EBANDS =      -154.69487427
  atomic energy  EATOM  =      2073.38295078
  ---------------------------------------------------
  free energy    TOTEN  =        -1.98372460 eV

  energy without entropy =       -1.98372460  energy(sigma->0) =       -1.98372460


--------------------------------------------------------------------------------------------------------




--------------------------------------- Iteration      1(  10)  ---------------------------------------


    POTLOK:  cpu time      0.2508: real time      0.2505
    SETDIJ:  cpu time      0.7525: real time      0.7532
    TRIAL :  cpu time      0.2019: real time      0.2019
    CORREC:  cpu time      3.2090: real time      3.2117
    CHARGE:  cpu time      2.0420: real time      2.0436
    --------------------------------------------
      LOOP:  cpu time      6.4607: real time      6.4740

 eigenvalue-minimisations  :     0
 total energy-change (2. order) :-0.3161445E-02  (-0.5925134E-03)
 number of electron      21.9999999 magnetization 
 augmentation part       10.6784388 magnetization 

 DIPCOR: dipole corrections for dipol
 direction  3 min pos     1,
 dipolmoment           0.000000      0.000000     -0.000048 electrons x Angstroem
 Tr[quadrupol]     -4030.448692

 energy correction for charged system         0.000000 eV
 dipol+quadrupol energy correction           -0.000000 eV
 added-field ion interaction          0.000088 eV  (added to PSCEN)


 Free energy of the ion-electron system (eV)
  ---------------------------------------------------
  alpha Z        PSCENC =         0.34439502
  Ewald energy   TEWEN  =       221.20106937
  -Hartree energ DENC   =     -2210.66595057
  -exchange      EXHF   =         0.00000000
  -V(xc)+E(xc)   XCENC  =       -24.89304818
  PAW double counting   =      2101.70429249    -2008.99345857
  entropy T*S    EENTRO =        -0.00000000
  eigenvalues    EBANDS =      -154.06713639
  atomic energy  EATOM  =      2073.38295078
  ---------------------------------------------------
  free energy    TOTEN  =        -1.98688604 eV

  energy without entropy =       -1.98688604  energy(sigma->0) =       -1.98688604


--------------------------------------------------------------------------------------------------------




--------------------------------------- Iteration      1(  11)  ---------------------------------------


    POTLOK:  cpu time      0.2470: real time      0.2472
    SETDIJ:  cpu time      0.7519: real time      0.7520
    TRIAL :  cpu time      0.2014: real time      0.2021
    CORREC:  cpu time      3.1965: real time      3.1987
    CHARGE:  cpu time      2.0408: real time      2.0421
    --------------------------------------------
      LOOP:  cpu time      6.4415: real time      6.4555

 eigenvalue-minimisations  :     0
 total energy-change (2. order) :-0.5931313E-03  (-0.9318529E-04)
 number of electron      21.9999999 magnetization 
 augmentation part       10.6781911 magnetization 

 DIPCOR: dipole corrections for dipol
 direction  3 min pos     1,
 dipolmoment           0.000000      0.000000     -0.000058 electrons x Angstroem
 Tr[quadrupol]     -4030.438095

 energy correction for charged system         0.000000 eV
 dipol+quadrupol energy correction           -0.000000 eV
 added-field ion interaction          0.000104 eV  (added to PSCEN)


 Free energy of the ion-electron system (eV)
  ---------------------------------------------------
  alpha Z        PSCENC =         0.34441089
  Ewald energy   TEWEN  =       221.20106937
  -Hartree energ DENC   =     -2210.47512591
  -exchange      EXHF   =         0.00000000
  -V(xc)+E(xc)   XCENC  =       -24.89844576
  PAW double counting   =      2101.23195514    -2008.51174209
  entropy T*S    EENTRO =        -0.00000000
  eigenvalues    EBANDS =      -154.26255159
  atomic energy  EATOM  =      2073.38295078
  ---------------------------------------------------
  free energy    TOTEN  =        -1.98747917 eV

  energy without entropy =       -1.98747917  energy(sigma->0) =       -1.98747917


--------------------------------------------------------------------------------------------------------




--------------------------------------- Iteration      1(  12)  ---------------------------------------


    POTLOK:  cpu time      0.2454: real time      0.2462
    SETDIJ:  cpu time      0.7525: real time      0.7532
    TRIAL :  cpu time      0.1999: real time      0.1999
    CORREC:  cpu time      3.1980: real time      3.1997
    CHARGE:  cpu time      2.0393: real time      2.0417
    --------------------------------------------
      LOOP:  cpu time      6.4390: real time      6.4545

 eigenvalue-minimisations  :     0
 total energy-change (2. order) :-0.9374621E-04  (-0.1347877E-04)
 number of electron      21.9999999 magnetization 
 augmentation part       10.6787505 magnetization 

 DIPCOR: dipole corrections for dipol
 direction  3 min pos     1,
 dipolmoment           0.000000      0.000000     -0.000056 electrons x Angstroem
 Tr[quadrupol]     -4030.437917

 energy correction for charged system         0.000000 eV
 dipol+quadrupol energy correction           -0.000000 eV
 added-field ion interaction          0.000102 eV  (added to PSCEN)


 Free energy of the ion-electron system (eV)
  ---------------------------------------------------
  alpha Z        PSCENC =         0.34441407
  Ewald energy   TEWEN  =       221.20106937
  -Hartree energ DENC   =     -2210.40622970
  -exchange      EXHF   =         0.00000000
  -V(xc)+E(xc)   XCENC  =       -24.90052625
  PAW double counting   =      2100.96307092    -2008.24070305
  entropy T*S    EENTRO =        -0.00000000
  eigenvalues    EBANDS =      -154.33161906
  atomic energy  EATOM  =      2073.38295078
  ---------------------------------------------------
  free energy    TOTEN  =        -1.98757292 eV

  energy without entropy =       -1.98757292  energy(sigma->0) =       -1.98757292


--------------------------------------------------------------------------------------------------------




--------------------------------------- Iteration      1(  13)  ---------------------------------------


    POTLOK:  cpu time      0.2459: real time      0.2455
    SETDIJ:  cpu time      0.7520: real time      0.7528
    TRIAL :  cpu time      0.2020: real time      0.2019
    CORREC:  cpu time      3.1959: real time      3.1985
    CHARGE:  cpu time      2.0333: real time      2.0348
    --------------------------------------------
      LOOP:  cpu time      6.4341: real time      6.4470

 eigenvalue-minimisations  :     0
 total energy-change (2. order) :-0.1291576E-04  (-0.1521648E-05)
 number of electron      21.9999999 magnetization 
 augmentation part       10.6784612 magnetization 

 DIPCOR: dipole corrections for dipol
 direction  3 min pos     1,
 dipolmoment           0.000000      0.000000     -0.000054 electrons x Angstroem
 Tr[quadrupol]     -4030.437988

 energy correction for charged system         0.000000 eV
 dipol+quadrupol energy correction           -0.000000 eV
 added-field ion interaction          0.000098 eV  (added to PSCEN)


 Free energy of the ion-electron system (eV)
  ---------------------------------------------------
  alpha Z        PSCENC =         0.34440652
  Ewald energy   TEWEN  =       221.20106937
  -Hartree energ DENC   =     -2210.48858507
  -exchange      EXHF   =         0.00000000
  -V(xc)+E(xc)   XCENC  =       -24.89823858
  PAW double counting   =      2100.98973251    -2008.26833348
  entropy T*S    EENTRO =        -0.00000000
  eigenvalues    EBANDS =      -154.25058789
  atomic energy  EATOM  =      2073.38295078
  ---------------------------------------------------
  free energy    TOTEN  =        -1.98758584 eV

  energy without entropy =       -1.98758584  energy(sigma->0) =       -1.98758584


--------------------------------------------------------------------------------------------------------




--------------------------------------- Iteration      1(  14)  ---------------------------------------


    POTLOK:  cpu time      0.2459: real time      0.2459
    SETDIJ:  cpu time      0.7513: real time      0.7521
    TRIAL :  cpu time      0.2007: real time      0.2007
    CORREC:  cpu time      3.3956: real time      3.3984
    CHARGE:  cpu time      2.2563: real time      2.2586
    --------------------------------------------
      LOOP:  cpu time      6.8632: real time      6.8694

 eigenvalue-minimisations  :     0
 total energy-change (2. order) :-0.1392686E-05  (-0.4809083E-06)
 number of electron      21.9999999 magnetization 
 augmentation part       10.6783648 magnetization 

 DIPCOR: dipole corrections for dipol
 direction  3 min pos     1,
 dipolmoment           0.000000      0.000000     -0.000055 electrons x Angstroem
 Tr[quadrupol]     -4030.438153

 energy correction for charged system         0.000000 eV
 dipol+quadrupol energy correction           -0.000000 eV
 added-field ion interaction          0.000099 eV  (added to PSCEN)


 Free energy of the ion-electron system (eV)
  ---------------------------------------------------
  alpha Z        PSCENC =         0.34440579
  Ewald energy   TEWEN  =       221.20106937
  -Hartree energ DENC   =     -2210.44339325
  -exchange      EXHF   =         0.00000000
  -V(xc)+E(xc)   XCENC  =       -24.89953442
  PAW double counting   =      2100.93237733    -2008.21024398
  entropy T*S    EENTRO =        -0.00000000
  eigenvalues    EBANDS =      -154.29521885
  atomic energy  EATOM  =      2073.38295078
  ---------------------------------------------------
  free energy    TOTEN  =        -1.98758723 eV

  energy without entropy =       -1.98758723  energy(sigma->0) =       -1.98758723


--------------------------------------------------------------------------------------------------------




--------------------------------------- Iteration      1(  15)  ---------------------------------------


    POTLOK:  cpu time      0.4063: real time      0.4059
    SETDIJ:  cpu time      0.7528: real time      0.7536
    TRIAL :  cpu time      0.2956: real time      0.2957
    CORREC:  cpu time      3.4004: real time      3.4034
    EDDIAG:  cpu time      0.2357: real time      0.2299
    CHARGE:  cpu time      2.1634: real time      2.1641
    --------------------------------------------
      LOOP:  cpu time      7.2729: real time      7.2800

 eigenvalue-minimisations  :     0
 total energy-change (2. order) :-0.4602171E-06  (-0.5818825E-06)
 number of electron      21.9999999 magnetization 
 augmentation part       10.6785055 magnetization 

 DIPCOR: dipole corrections for dipol
 direction  3 min pos     1,
 dipolmoment           0.000000      0.000000     -0.000055 electrons x Angstroem
 Tr[quadrupol]     -4030.438460

 energy correction for charged system         0.000000 eV
 dipol+quadrupol energy correction           -0.000000 eV
 added-field ion interaction          0.000099 eV  (added to PSCEN)


 Free energy of the ion-electron system (eV)
  ---------------------------------------------------
  alpha Z        PSCENC =         0.34440607
  Ewald energy   TEWEN  =       221.20106937
  -Hartree energ DENC   =     -2210.43077506
  -exchange      EXHF   =         0.00000000
  -V(xc)+E(xc)   XCENC  =       -24.89990618
  PAW double counting   =      2100.91266308    -2008.19034095
  entropy T*S    EENTRO =        -0.00000000
  eigenvalues    EBANDS =      -154.30765480
  atomic energy  EATOM  =      2073.38295078
  ---------------------------------------------------
  free energy    TOTEN  =        -1.98758769 eV

  energy without entropy =       -1.98758769  energy(sigma->0) =       -1.98758769


--------------------------------------------------------------------------------------------------------


  average scaling for gradient   1.5368


 average (electrostatic) potential at core
  the test charge radii are     1.1249
  (the norm of the test charge is              1.0000)
       1 -82.0380       2 -82.0380
 
 
 
 E-fermi :  -4.7783     XC(G=0):  -0.1737     alpha+bet : -0.0465

 Fermi energy:        -4.7782910901

 k-point     1 :       0.0000    0.0000    0.0000
  band No.  band energies     occupation 
      1      -8.2183      2.00000
      2      -7.7128      2.00000
      3      -7.7128      2.00000
      4      -7.2005      2.00000
      5      -7.2004      2.00000
      6      -7.0068      2.00000
      7      -7.0067      2.00000
      8      -6.7410      2.00000
      9      -6.7410      2.00000
     10      -6.5851      2.00000
     11      -5.0220      2.00000
     12      -2.9834      0.00000
     13      -1.0146      0.00000
     14      -1.0146      0.00000
     15      -0.6095      0.00000
     16       0.0299      0.00000
     17       0.2543      0.00000
     18       0.2714      0.00000
     19       0.3055      0.00000
     20       0.3055      0.00000
     21       0.3365      0.00000
     22       0.3621      0.00000
     23       0.3621      0.00000
     24       0.3927      0.00000
     25       0.5632      0.00000
     26       0.6001      0.00000
     27       0.6167      0.00000
     28       0.6341      0.00000
     29       0.6563      0.00000
     30       0.6638      0.00000
     31       0.6639      0.00000
     32       0.7036      0.00000
     33       0.7036      0.00000
     34       0.7445      0.00000
     35       0.7741      0.00000
     36       0.7742      0.00000
     37       0.9146      0.00000
     38       0.9500      0.00000
     39       0.9537      0.00000
     40       1.0109      0.00000
     41       1.0119      0.00000
     42       1.0121      0.00000
     43       1.1094      0.00000
     44       1.1095      0.00000
     45       1.1153      0.00000
     46       1.2010      0.00000
     47       1.2223      0.00000
     48       1.3333      0.00000


--------------------------------------------------------------------------------------------------------


 soft charge-density along one line, spin component           1
         0         1         2         3         4         5         6         7         8         9
 total charge-density along one line
 
 pseudopotential strength for first ion, spin component:           1
-10.184  -0.000  -0.000   0.000  -0.000 -10.164  -0.000  -0.000
 -0.000 -10.212   0.000   0.000  -0.000  -0.000 -10.191   0.000
 -0.000   0.000 -10.229  -0.000  -0.000  -0.000   0.000 -10.207
  0.000   0.000  -0.000 -10.212  -0.000  -0.000   0.000  -0.000
 -0.000  -0.000  -0.000  -0.000 -10.184  -0.000  -0.000  -0.000
-10.164  -0.000  -0.000  -0.000  -0.000 -10.120  -0.000  -0.000
 -0.000 -10.191   0.000   0.000  -0.000  -0.000 -10.145   0.000
 -0.000   0.000 -10.207  -0.000  -0.000  -0.000   0.000 -10.162
 -0.000   0.000  -0.000 -10.191  -0.000  -0.000   0.000  -0.000
 -0.000  -0.000  -0.000  -0.000 -10.164  -0.000  -0.000  -0.000
 -0.000  -0.000   0.013   0.000  -0.000  -0.000  -0.000   0.013
 -0.000  -0.000   0.021   0.000  -0.000  -0.000  -0.000   0.021
 -0.000   0.043   0.000  -0.000   0.000  -0.000   0.042   0.000
 -0.000   0.000   0.047  -0.000   0.000  -0.000   0.000   0.046
 -0.000  -0.000   0.000   0.043  -0.000  -0.000  -0.000   0.000
 -0.000   0.051   0.000  -0.000   0.000  -0.000   0.050   0.000
 -0.000   0.000   0.057  -0.000   0.000  -0.000   0.000   0.055
 -0.000  -0.000   0.000   0.051  -0.000  -0.000  -0.000   0.000
 total augmentation occupancy for first ion, spin component:           1
  2.151   0.000   0.000   0.000   0.000  -0.082   0.000  -0.000  -0.000   0.000  -0.000  -0.000  -0.000   0.000   0.000   0.000
  0.000   2.271   0.000   0.000  -0.000  -0.000  -0.276   0.000   0.000   0.000   0.000  -0.000   0.012   0.000   0.000   0.026
  0.000   0.000   2.646   0.000  -0.000   0.000   0.000  -0.771  -0.000   0.000  -1.014   0.151   0.000   0.146   0.000   0.000
  0.000   0.000   0.000   2.271   0.000   0.000   0.000   0.000  -0.276  -0.000  -0.000   0.000   0.000   0.000   0.012   0.000
  0.000  -0.000  -0.000   0.000   2.151   0.000  -0.000   0.000  -0.000  -0.083   0.000  -0.000   0.000  -0.000  -0.000   0.000
 -0.082  -0.000  -0.000   0.000   0.000   0.013  -0.000   0.000   0.000  -0.000   0.000   0.000  -0.000   0.000   0.000   0.000
  0.000  -0.276   0.000   0.000  -0.000  -0.000   0.271   0.000   0.000  -0.000   0.000  -0.000  -0.040   0.000   0.000   0.003
 -0.000   0.000  -0.771  -0.000   0.000   0.000   0.000   0.875  -0.000  -0.000   0.870  -0.125   0.000  -0.203   0.000   0.000
 -0.000   0.000  -0.000  -0.276  -0.000   0.000   0.000  -0.000   0.271  -0.000  -0.000   0.000   0.000   0.000  -0.040   0.000
  0.000   0.000   0.000  -0.000  -0.083  -0.000  -0.000  -0.000  -0.000   0.013  -0.000   0.000   0.000   0.000   0.000  -0.000
 -0.000   0.000  -1.014  -0.000   0.000   0.000   0.000   0.870  -0.000  -0.000   1.669  -0.174   0.000  -0.247   0.000   0.000
 -0.000  -0.000   0.151   0.000  -0.000  -0.000  -0.000  -0.125   0.000   0.000  -0.174   0.021   0.000   0.031  -0.000  -0.000
 -0.000   0.012   0.000   0.000   0.000  -0.000  -0.040   0.000   0.000   0.000   0.000   0.000   0.006   0.000   0.000  -0.001
 -0.000   0.000   0.146   0.000  -0.000   0.000   0.000  -0.203   0.000   0.000  -0.247   0.031   0.000   0.051   0.000   0.000
  0.000   0.000   0.000   0.012  -0.000   0.000   0.000   0.000  -0.040   0.000   0.000  -0.000   0.000  -0.000   0.006   0.000
  0.000   0.026   0.000   0.000   0.000   0.000   0.003   0.000   0.000  -0.000   0.000  -0.000  -0.001   0.000   0.000   0.000
  0.000   0.000   0.015  -0.000  -0.000  -0.000   0.000   0.018  -0.000  -0.000   0.020  -0.002  -0.000  -0.005  -0.000   0.000
  0.000   0.000  -0.000   0.026   0.000   0.000   0.000  -0.000   0.003  -0.000   0.000  -0.000   0.000  -0.000  -0.001   0.000


------------------------ aborting loop because EDIFF is reached ----------------------------------------


    FORLOC:  cpu time      0.0123: real time      0.0123
    FORNL :  cpu time      0.0513: real time      0.0512
    STRESS:  cpu time      0.1585: real time      0.1586
    FORCOR:  cpu time      0.2358: real time      0.2356
    OFIELD:  cpu time      0.0002: real time      0.0002

 ---------------------------------------------------------------------------------------------

         DFTD3 V3.0 Rev 1        
 IVDW         = 11
 DF revpbe    
 parameters
 VDW_S6       =    1.0000
 VDW_S8       =    1.0100
 VDW_SR       =    0.9230
 rs18     =    1.0000
 alpha6   =   14.0000
 alpha8   =   16.0000
 k1-k3    =   16.0000    1.3333   -4.0000
 VDW_RADIUS   =   50.2022 A
 VDW_CNRADIUS =   21.1671 A
 Edisp (eV)   -0.01297

 E6    (eV) :    -0.0074
 E8    (eV) :    -0.0055
 % E8        : 42.63
    FORVDW:  cpu time      0.0149: real time      0.0148

  FORCE on cell =-STRESS in cart. coord.  units (eV):
  Direction    XX          YY          ZZ          XY          YZ          ZX
  --------------------------------------------------------------------------------------
  Alpha Z     0.34431     0.34431     0.34431
  Ewald    -147.83442  -147.83442   516.86994     0.00000    -0.00000    -0.00000
  Hartree   576.76201   576.76201  1056.93674    -0.00000    -0.00000    -0.00000
  E(xc)    -116.65084  -116.65084  -115.58218    -0.00000    -0.00000     0.00000
  Local    -749.30977  -749.30977 -1883.84959     0.00000    -0.00000     0.00000
  n-local   -24.54181   -24.54181   -27.67513    -0.00000    -0.00000    -0.00000
  augment   183.65928   183.65928   181.74272    -0.00000    -0.00000     0.00000
  Kinetic   277.55768   277.55768   271.63978    -0.00000     0.00000     0.00000
  Fock        0.00000     0.00000     0.00000     0.00000     0.00000     0.00000
  vdW        -0.00006    -0.00006     0.10280    -0.00000     0.00000    -0.00000
  -------------------------------------------------------------------------------------
  Total      -0.01363    -0.01363     0.52939     0.00000     0.00000     0.00000
  in kB      -0.00221    -0.00221     0.08583     0.00000     0.00000     0.00000
  external pressure =        0.03 kB  Pullay stress =        0.00 kB


 VOLUME and BASIS-vectors are now :
 -----------------------------------------------------------------------------
  energy-cutoff  :      520.00
  volume of cell :     9881.61
      direct lattice vectors                 reciprocal lattice vectors
    21.138852197  0.000000000  0.000000000     0.047306258  0.000000000  0.000000000
     0.000000000 21.138852197  0.000000000     0.000000000  0.047306258  0.000000000
     0.000000000  0.000000000 22.113885220     0.000000000  0.000000000  0.045220457

  length of vectors
    21.138852197 21.138852197 22.113885220     0.047306258  0.047306258  0.045220457


 FORCES acting on ions:
    Electron-Ion                     Ewald-Force                    Non-Local-Force
 -----------------------------------------------------------------------------------------------
   0.241E-03 -.762E-08 -.271E+03   0.613E-16 0.475E-16 0.263E+03   -.220E-21 -.118E-21 0.765E+01
   0.241E-03 -.761E-08 0.271E+03   -.807E-16 -.260E-16 -.263E+03   -.445E-21 0.293E-21 -.765E+01
 -----------------------------------------------------------------------------------------------
   0.490E-03 -.126E-07 -.395E-04   -.194E-16 0.215E-16 0.000E+00   -.665E-21 0.175E-21 0.888E-15
 
 
 POSITION                                       TOTAL-FORCE (eV/Angst)
 -----------------------------------------------------------------------------------
     10.56943     12.68331     16.48808         0.000000      0.000000      0.210208
     10.56943     12.68331     13.92383        -0.000000     -0.000000     -0.210208
 -----------------------------------------------------------------------------------
    total drift:                                0.000490     -0.000000     -0.000039


--------------------------------------------------------------------------------------------------------



  FREE ENERGIE OF THE ION-ELECTRON SYSTEM (eV)
  ---------------------------------------------------
  free  energy   TOTEN  =        -2.00055842 eV

  energy  without entropy=       -2.00055842  energy(sigma->0) =       -2.00055842
 


--------------------------------------------------------------------------------------------------------


    POTLOK:  cpu time      1.0339: real time      1.0344


--------------------------------------------------------------------------------------------------------


     LOOP+:  cpu time     74.6150: real time     74.9600
    4ORBIT:  cpu time      0.0000: real time      0.0000

 total amount of memory used by VASP MPI-rank0    58457. kBytes
=======================================================================

   base      :      30000. kBytes
   nonlr-proj:        314. kBytes
   fftplans  :      11368. kBytes
   grid      :      15959. kBytes
   one-center:         15. kBytes
   wavefun   :        801. kBytes
 
  
  
 General timing and accounting informations for this job:
 ========================================================
  
                  Total CPU time used (sec):       90.428
                            User time (sec):       89.053
                          System time (sec):        1.375
                         Elapsed time (sec):       92.172
  
                   Maximum memory used (kb):      823244.
                   Average memory used (kb):          N/A
  
                          Minor page faults:        35503
                          Major page faults:            0
                 Voluntary context switches:         6129
