 vasp.6.3.0 20Jan22 (build Apr  1 2022 16:44:48) complex                         
 executed on        HPECrayEX_GCC date 2023.01.09  19:20:38
 running  768 mpi-ranks, with    1 threads/rank
 distrk:  each k-point on  384 cores,    2 groups
 distr:  one band on NCORE=   4 cores,   96 groups


--------------------------------------------------------------------------------------------------------


 INCAR:
   SYSTEM = MgO-rocksalt
   ISMEAR = 0
   SIGMA = 0.05
   EDIFF = 1E-6
   ALGO = ALL
   ISTART = 0
   IBRION = -1
   NSW = 0
   ISYM = 2
   GGA = RE
   IVDW = 20
   VDW_SR = 0.6
   ENCUT = 520
   PREC = Accurate
   LASPH = .TRUE.
   LREAL = Auto
   ISPIN = 1
   NELM = 200
   NELMIN = 8
   NCORE = 4
   KPAR = 2
   LWAVE = .FALSE.
   LCHARG = .FALSE.

 POTCAR:    PAW_PBE Cu 22Jun2005                  
 POTCAR:    PAW_PBE Cu 22Jun2005                  
   SHA256 =  0e71e558f37a4e8407882b4609ceaae59938afaad9ced71dfe8490308a0ab630 Cu/POTCAR             
   COPYR  = (c) Copyright 22Jun2005 Georg Kresse                                                    
   COPYR  = This file is part of the software VASP. Any use, copying, and all other rights are regul
   COPYR  = If you do not have a valid VASP license, you may not use, copy or distribute this file. 
   VRHFIN =Cu: d10 p1                                                                               
   LEXCH  = PE                                                                                      
   EATOM  =  1390.9808 eV,  102.2342 Ry                                                             
                                                                                                    
   TITEL  = PAW_PBE Cu 22Jun2005                                                                    
   LULTRA =        F    use ultrasoft PP ?                                                          
   IUNSCR =        1    unscreen: 0-lin 1-nonlin 2-no                                               
   RPACOR =    2.000    partial core radius                                                         
   POMASS =   63.546; ZVAL   =   11.000    mass and valenz                                          
   RCORE  =    2.300    outmost cutoff radius                                                       
   RWIGS  =    2.200; RWIGS  =    1.164    wigner-seitz radius (au A)                               
   ENMAX  =  295.446; ENMIN  =  221.585 eV                                                          
   ICORE  =        3    local potential                                                             
   LCOR   =        T    correct aug charges                                                         
   LPAW   =        T    paw PP                                                                      
   EAUG   =  586.980                                                                                
   DEXC   =    0.000                                                                                
   RMAX   =    2.344    core radius for proj-oper                                                   
   RAUG   =    1.300    factor for augmentation sphere                                              
   RDEP   =    2.302    radius for radial grids                                                     
   RDEPT  =    1.771    core radius for aug-charge                                                  
                                                                                                    
   Atomic configuration                                                                             
    9 entries                                                                                       
     n  l   j            E        occ.                                                              
     1  0  0.50     -8850.2468   2.0000                                                             
     2  0  0.50     -1062.3498   2.0000                                                             
     2  1  1.50      -916.8226   6.0000                                                             
     3  0  0.50      -114.6929   2.0000                                                             
     3  1  1.50       -72.1325   6.0000                                                             
     3  2  2.50        -5.0394  10.0000                                                             
     4  0  0.50        -4.6097   1.0000                                                             
     4  1  0.50        -4.0817   0.0000                                                             
     4  3  2.50        -1.3606   0.0000                                                             
   Description                                                                                      
     l       E           TYP  RCUT    TYP  RCUT                                                     
     2     -5.0393973     23  2.200                                                                 
     2     10.8846608     23  2.200                                                                 
     0     -4.6097109     23  2.200                                                                 
     0      8.2520465     23  2.200                                                                 
     1     -2.7211652     23  2.200                                                                 
     1     21.7055443     23  2.200                                                                 
     3      2.7211652     23  2.300                                                                 
  local pseudopotential read in
  partial core-charges read in
  partial kinetic energy density read in
  atomic valenz-charges read in
  non local Contribution for L=           2  read in
    real space projection operators read in
  non local Contribution for L=           2  read in
    real space projection operators read in
  non local Contribution for L=           0  read in
    real space projection operators read in
  non local Contribution for L=           0  read in
    real space projection operators read in
  non local Contribution for L=           1  read in
    real space projection operators read in
  non local Contribution for L=           1  read in
    real space projection operators read in
    PAW grid and wavefunctions read in

   number of l-projection  operators is LMAX  =           6
   number of lm-projection operators is LMMAX =          18

 -----------------------------------------------------------------------------
|                                                                             |
|               ----> ADVICE to this user running VASP <----                  |
|                                                                             |
|     You have a (more or less) 'small supercell' and for smaller cells       |
|     it is recommended to use the reciprocal-space projection scheme!        |
|     The real-space optimization is not efficient for small cells and it     |
|     is also less accurate ...                                               |
|     Therefore, set LREAL=.FALSE. in the INCAR file.                         |
|                                                                             |
 -----------------------------------------------------------------------------

 Optimization of the real space projectors (new method)

 maximal supplied QI-value         = 16.25
 optimisation between [QCUT,QGAM] = [ 11.54, 23.24] = [ 37.28,151.24] Ry 
 Optimized for a Real-space Cutoff    1.53 Angstroem

   l    n(q)    QCUT    max X(q) W(low)/X(q) W(high)/X(q)  e(spline) 
   2     10    11.539     4.610    0.96E-04    0.13E-03    0.19E-06
   2     10    11.539     8.522    0.16E-03    0.21E-03    0.28E-06
   0     11    11.539    51.609    0.45E-04    0.31E-04    0.11E-06
   0     11    11.539    27.747    0.39E-04    0.29E-04    0.10E-06
   1     10    11.539    20.408    0.70E-05    0.38E-04    0.18E-06
   1     10    11.539    13.425    0.66E-05    0.34E-04    0.17E-06
 -----------------------------------------------------------------------------
|                                                                             |
|               ----> ADVICE to this user running VASP <----                  |
|                                                                             |
|     You enforced a specific xc type in the INCAR file but a different       |
|     type was found in the POTCAR file.                                      |
|     I HOPE YOU KNOW WHAT YOU ARE DOING!                                     |
|                                                                             |
 -----------------------------------------------------------------------------

  PAW_PBE Cu 22Jun2005                  :
 energy of atom  1       EATOM=-1390.9808
 kinetic energy error for atom=    0.0037 (will be added to EATOM!!)


 POSCAR: Cu Mg  O
  positions in direct lattice
  No initial velocities read in
 exchange correlation table for  LEXCH =       40
   RHO(1)=    0.500       N(1)  =     2000
   RHO(2)=  100.500       N(2)  =     4000



--------------------------------------------------------------------------------------------------------


 ion  position               nearest neighbor table
   1  0.398  0.602  0.598-   2 2.32
   2  0.321  0.679  0.599-   1 2.32
   3  0.579  0.421  0.599-   4 2.32
   4  0.502  0.498  0.598-   3 2.32

  LATTYP: Found a simple tetragonal cell.
 ALAT       =    21.1388521970
 C/A-ratio  =     1.0461251639
  
  Lattice vectors:
  
 A1 = (  21.1388521970,   0.0000000000,   0.0000000000)
 A2 = (   0.0000000000,  21.1388521970,   0.0000000000)
 A3 = (   0.0000000000,   0.0000000000,  22.1138852197)


Analysis of symmetry for initial positions (statically):
=====================================================================
 Subroutine PRICEL returns:
 Original cell was already a primitive cell.
 

 Routine SETGRP: Setting up the symmetry group for a 
 simple tetragonal supercell.


 Subroutine GETGRP returns: Found  4 space group operations
 (whereof  1 operations were pure point group operations)
 out of a pool of 16 trial point group operations.


The static configuration has the point symmetry C_1 .
 The point group associated with its full space group is C_2v.


Analysis of symmetry for dynamics (positions and initial velocities):
=====================================================================
 Subroutine PRICEL returns:
 Original cell was already a primitive cell.
 

 Routine SETGRP: Setting up the symmetry group for a 
 simple tetragonal supercell.


 Subroutine GETGRP returns: Found  4 space group operations
 (whereof  1 operations were pure point group operations)
 out of a pool of 16 trial point group operations.


The dynamic configuration has the point symmetry C_1 .
 The point group associated with its full space group is C_2v.


Analysis of constrained symmetry for selective dynamics:
=====================================================================
 Subroutine PRICEL returns:
 Original cell was already a primitive cell.
 

 Routine SETGRP: Setting up the symmetry group for a 
 simple tetragonal supercell.


 Subroutine GETGRP returns: Found  4 space group operations
 (whereof  1 operations were pure point group operations)
 out of a pool of 16 trial point group operations.


The constrained configuration has the point symmetry C_1 .
 The point group associated with its full space group is C_2v.


 Subroutine INISYM returns: Found  4 space group operations
 (whereof  1 operations are pure point group operations),
 and found     1 'primitive' translations


----------------------------------------------------------------------------------------

                                     Primitive cell                                     

  volume of cell :    9881.6133

  direct lattice vectors                    reciprocal lattice vectors
    21.138852197  0.000000000  0.000000000     0.047306258  0.000000000  0.000000000
     0.000000000 21.138852197  0.000000000     0.000000000  0.047306258  0.000000000
     0.000000000  0.000000000 22.113885220     0.000000000  0.000000000  0.045220457

  length of vectors
    21.138852197 21.138852197 22.113885220     0.047306258  0.047306258  0.045220457

  position of ions in fractional coordinates (direct lattice)
     0.398329241  0.601718395  0.597737471
     0.320617240  0.679428851  0.599224153
     0.579428377  0.420617713  0.599224153
     0.501717922  0.498329241  0.597737471

  ion indices of the primitive-cell ions
   primitive index   ion index
                 1           1
                 2           2
                 3           3
                 4           4

----------------------------------------------------------------------------------------



 KPOINTS: KPOINTS created by Atomic Simulation Env

Automatic generation of k-mesh.
 Grid dimensions read from file:
 generate k-points for:    1    1    1

 Generating k-lattice:

  Cartesian coordinates                     Fractional coordinates (reciprocal lattice)
     0.047306258  0.000000000  0.000000000     1.000000000  0.000000000  0.000000000
     0.000000000  0.047306258  0.000000000     0.000000000  1.000000000  0.000000000
     0.000000000  0.000000000  0.045220457     0.000000000  0.000000000  1.000000000

  Length of vectors
     0.047306258  0.047306258  0.045220457

  Shift w.r.t. Gamma in fractional coordinates (k-lattice)
     0.000000000  0.000000000  0.000000000

 
 Subroutine IBZKPT returns following result:
 ===========================================
 
 Found      1 irreducible k-points:
 
 Following reciprocal coordinates:
            Coordinates               Weight
  0.000000  0.000000  0.000000      1.000000
 
 Following cartesian coordinates:
            Coordinates               Weight
  0.000000  0.000000  0.000000      1.000000
 


--------------------------------------------------------------------------------------------------------




 Dimension of arrays:
   k-points           NKPTS =      1   k-points in BZ     NKDIM =      1   number of bands    NBANDS=     96
   number of dos      NEDOS =    301   number of ions     NIONS =      4
   non local maximal  LDIM  =      6   non local SUM 2l+1 LMDIM =     18
   total plane-waves  NPLWV = ******
   max r-space proj   IRMAX =   6628   max aug-charges    IRDMAX=  12805
   dimension x,y,z NGX =   160 NGY =  160 NGZ =  168
   dimension x,y,z NGXF=   320 NGYF=  320 NGZF=  336
   support grid    NGXF=   320 NGYF=  320 NGZF=  336
   ions per type =               4
   NGX,Y,Z   is equivalent  to a cutoff of  12.58, 12.58, 12.63 a.u.
   NGXF,Y,Z  is equivalent  to a cutoff of  25.17, 25.17, 25.26 a.u.

 SYSTEM =  MgO-rocksalt                            
 POSCAR =  Cu Mg  O                                

 Startparameter for this run:
   NWRITE =      2    write-flag & timer
   PREC   = accura    normal or accurate (medium, high low for compatibility)
   ISTART =      0    job   : 0-new  1-cont  2-samecut
   ICHARG =      2    charge: 1-file 2-atom 10-const
   ISPIN  =      1    spin polarized calculation?
   LNONCOLLINEAR =      F non collinear calculations
   LSORBIT =      F    spin-orbit coupling
   INIWAV =      1    electr: 0-lowe 1-rand  2-diag
   LASPH  =      T    aspherical Exc in radial PAW
 Electronic Relaxation 1
   ENCUT  =  520.0 eV  38.22 Ry    6.18 a.u.  39.30 39.30 41.12*2*pi/ulx,y,z
   ENINI  =  520.0     initial cutoff
   ENAUG  =  587.0 eV  augmentation charge cutoff
   NELM   =    200;   NELMIN=  8; NELMDL= -5     # of ELM steps 
   EDIFF  = 0.1E-05   stopping-criterion for ELM
   LREAL  =      T    real-space projection
   NLSPLINE    = F    spline interpolate recip. space projectors
   LCOMPAT=      F    compatible to vasp.4.4
   GGA_COMPAT  = T    GGA compatible to vasp.4.4-vasp.4.6
   LMAXPAW     = -100 max onsite density
   LMAXMIX     =    2 max onsite mixed and CHGCAR
   VOSKOWN=      0    Vosko Wilk Nusair interpolation
   ROPT   =   -0.00025
 Ionic relaxation
   EDIFFG = 0.1E-04   stopping-criterion for IOM
   NSW    =      0    number of steps for IOM
   NBLOCK =      1;   KBLOCK =      1    inner block; outer block 
   IBRION =     -1    ionic relax: 0-MD 1-quasi-New 2-CG
   NFREE  =      0    steps in history (QN), initial steepest desc. (CG)
   ISIF   =      2    stress and relaxation
   IWAVPR =     10    prediction:  0-non 1-charg 2-wave 3-comb
   ISYM   =      2    0-nonsym 1-usesym 2-fastsym
   LCORR  =      T    Harris-Foulkes like correction to forces

   POTIM  = 0.5000    time-step for ionic-motion
   TEIN   =    0.0    initial temperature
   TEBEG  =    0.0;   TEEND  =   0.0 temperature during run
   SMASS  =  -3.00    Nose mass-parameter (am)
   estimated Nose-frequenzy (Omega)   =  0.10E-29 period in steps = 0.13E+47 mass=  -0.102E-25a.u.
   SCALEE = 1.0000    scale energy and forces
   NPACO  =    256;   APACO  = 10.0  distance and # of slots for P.C.
   PSTRESS=    0.0 pullay stress

  Mass of Ions in am
   POMASS =  63.55
  Ionic Valenz
   ZVAL   =  11.00
  Atomic Wigner-Seitz radii
   RWIGS  =  -1.00
  virtual crystal weights 
   VCA    =   1.00
   NELECT =      44.0000    total number of electrons
   NUPDOWN=      -1.0000    fix difference up-down

 DOS related values:
   EMIN   =  10.00;   EMAX   =-10.00  energy-range for DOS
   EFERMI =   0.00
   ISMEAR =     0;   SIGMA  =   0.05  broadening in eV -4-tet -1-fermi 0-gaus

 Electronic relaxation 2 (details)
   IALGO  =     58    algorithm
   LDIAG  =      T    sub-space diagonalisation (order eigenvalues)
   LSUBROT=      F    optimize rotation matrix (better conditioning)
   TURBO    =      0    0=normal 1=particle mesh
   IRESTART =      0    0=no restart 2=restart with 2 vectors
   NREBOOT  =      0    no. of reboots
   NMIN     =      0    reboot dimension
   EREF     =   0.00    reference energy to select bands
   IMIX   =      4    mixing-type and parameters
     AMIX     =   0.40;   BMIX     =  1.00
     AMIX_MAG =   1.60;   BMIX_MAG =  1.00
     AMIN     =   0.10
     WC   =   100.;   INIMIX=   1;  MIXPRE=   1;  MAXMIX= -45

 Intra band minimization:
   WEIMIN = 0.0000     energy-eigenvalue tresh-hold
   EBREAK =  0.26E-08  absolut break condition
   DEPER  =   0.30     relativ break condition  

   TIME   =   0.40     timestep for ELM

  volume/ion in A,a.u.               =    2470.40     16671.10
  Fermi-wavevector in a.u.,A,eV,Ry     =   0.269329  0.508958  0.986941  0.072538
  Thomas-Fermi vector in A             =   1.106612

 Write flags
   LWAVE        =      F    write WAVECAR
   LDOWNSAMPLE  =      F    k-point downsampling of WAVECAR
   LCHARG       =      F    write CHGCAR
   LVTOT        =      F    write LOCPOT, total local potential
   LVHAR        =      F    write LOCPOT, Hartree potential only
   LELF         =      F    write electronic localiz. function (ELF)
   LORBIT       =      0    0 simple, 1 ext, 2 COOP (PROOUT), +10 PAW based schemes


 Dipole corrections
   LMONO  =      F    monopole corrections only (constant potential shift)
   LDIPOL =      F    correct potential (dipole corrections)
   IDIPOL =      0    1-x, 2-y, 3-z, 4-all directions 
   EPSILON=  1.0000000 bulk dielectric constant

 Exchange correlation treatment:
   GGA     =    RE    GGA type
   LEXCH   =    40    internal setting for exchange type
   LIBXC   =     F    Libxc                    
   VOSKOWN =     0    Vosko Wilk Nusair interpolation
   LHFCALC =     F    Hartree Fock is set to
   LHFONE  =     F    Hartree Fock one center treatment
   AEXX    =    0.0000 exact exchange contribution

 Linear response parameters
   LEPSILON=     F    determine dielectric tensor
   LRPA    =     F    only Hartree local field effects (RPA)
   LNABLA  =     F    use nabla operator in PAW spheres
   LVEL    =     F    velocity operator in full k-point grid
   CSHIFT  =0.1000    complex shift for real part using Kramers Kronig
   OMEGAMAX=  -1.0    maximum frequency
   DEG_THRESHOLD= 0.2000000E-02 threshold for treating states as degnerate
   RTIME   =   -0.100 relaxation time in fs
  (WPLASMAI=    0.000 imaginary part of plasma frequency in eV, 0.658/RTIME)
   DFIELD  = 0.0000000 0.0000000 0.0000000 field for delta impulse in time

  Optional k-point grid parameters
   LKPOINTS_OPT  =     F    use optional k-point grid
   KPOINTS_OPT_MODE=     1    mode for optional k-point grid

 Orbital magnetization related:
   ORBITALMAG=     F  switch on orbital magnetization
   LCHIMAG   =     F  perturbation theory with respect to B field
   DQ        =  0.001000  dq finite difference perturbation B field
   LLRAUG    =     F  two centre corrections for induced B field



--------------------------------------------------------------------------------------------------------


 Static calculation
 charge density and potential will be updated during run
 non-spin polarized calculation
 Conjugate gradient for all bands (Freysoldt, et al. PRB 79, 241103 (2009))
 preconditioned conjugated gradient                                        
 perform sub-space diagonalisation
    before iterative eigenvector-optimisation
 modified Broyden-mixing scheme, WC =      100.0
 initial mixing is a Kerker type mixing with AMIX =  0.4000 and BMIX =      1.0000
 Hartree-type preconditioning will be used
 using additional bands           74
 real space projection scheme for non local part
 use partial core corrections
 no Harris-corrections to forces 
 use gradient corrections 
 use of overlap-Matrix (Vanderbilt PP)
 Gauss-broadening in eV      SIGMA  =   0.05


--------------------------------------------------------------------------------------------------------


  energy-cutoff  :      520.00
  volume of cell :     9881.61
      direct lattice vectors                 reciprocal lattice vectors
    21.138852197  0.000000000  0.000000000     0.047306258  0.000000000  0.000000000
     0.000000000 21.138852197  0.000000000     0.000000000  0.047306258  0.000000000
     0.000000000  0.000000000 22.113885220     0.000000000  0.000000000  0.045220457

  length of vectors
    21.138852197 21.138852197 22.113885220     0.047306258  0.047306258  0.045220457



 k-points in units of 2pi/SCALE and weight: KPOINTS created by Atomic Simulation Env
   0.00000000  0.00000000  0.00000000       1.000

 k-points in reciprocal lattice and weights: KPOINTS created by Atomic Simulation Env
   0.00000000  0.00000000  0.00000000       1.000

 position of ions in fractional coordinates (direct lattice) 
   0.39832924  0.60171840  0.59773747
   0.32061724  0.67942885  0.59922415
   0.57942838  0.42061771  0.59922415
   0.50171792  0.49832924  0.59773747

 position of ions in cartesian coordinates  (Angst):
   8.42022296 12.71963622 13.21829782
   6.77748045 14.36234605 13.25117414
  12.24845083  8.89137567 13.25117414
  10.60574100 10.53410818 13.21829782



--------------------------------------------------------------------------------------------------------


 k-point   1 :   0.0000 0.0000 0.0000  plane waves:  265979

 maximum and minimum number of plane-waves per node :     66495    66494

 maximum number of plane-waves:    265979
 maximum index in each direction: 
   IXMAX=   39   IYMAX=   39   IZMAX=   41
   IXMIN=  -39   IYMIN=  -39   IZMIN=  -41


 real space projection operators:
  total allocation   :       3587.06 KBytes
  max/ min on nodes  :        904.08        889.88


 parallel 3D FFT for wavefunctions:
    minimum data exchange during FFTs selected (reduces bandwidth)
 parallel 3D FFT for charge:
    minimum data exchange during FFTs selected (reduces bandwidth)


 total amount of memory used by VASP MPI-rank0   118517. kBytes
=======================================================================

   base      :      30000. kBytes
   nonlr-proj:       1542. kBytes
   fftplans  :      35474. kBytes
   grid      :      48291. kBytes
   one-center:         15. kBytes
   wavefun   :       3195. kBytes

     INWAV:  cpu time      0.0001: real time      0.0001
 Broyden mixing: mesh for mixing (old mesh)
   NGX = 79   NGY = 79   NGZ = 83
  (NGX  =320   NGY  =320   NGZ  =336)
  gives a total of 518003 points

 initial charge density was supplied:
 charge density of overlapping atoms calculated
 number of electron      44.0000000 magnetization 
 keeping initial charge density in first step


--------------------------------------------------------------------------------------------------------


 Maximum index for non-local projection operator         1589
 Maximum index for augmentation-charges            0 (set IRDMAX)


--------------------------------------------------------------------------------------------------------


 First call to EWALD:  gamma=   0.083
 Maximum number of real-space cells 3x 3x 3
 Maximum number of reciprocal cells 3x 3x 3

    FEWALD:  cpu time      0.0010: real time      0.0010


--------------------------------------- Iteration      1(   1)  ---------------------------------------


    POTLOK:  cpu time      0.1405: real time      0.1406
    SETDIJ:  cpu time      0.1781: real time      0.1782
    TRIAL :  cpu time      0.6285: real time      0.6290
    CORREC:  cpu time      0.0017: real time      0.0017
    --------------------------------------------
      LOOP:  cpu time      0.9503: real time      0.9508

 eigenvalue-minimisations  :   192
 total energy-change (2. order) : 0.2268787E+03  (-0.8510903E+03)
 number of electron      44.0000000 magnetization 
 augmentation part       44.0000000 magnetization 

 Free energy of the ion-electron system (eV)
  ---------------------------------------------------
  alpha Z        PSCENC =         1.18414354
  Ewald energy   TEWEN  =      1143.30920876
  -Hartree energ DENC   =     -6231.77849323
  -exchange      EXHF   =         0.00000000
  -V(xc)+E(xc)   XCENC  =       174.04062849
  PAW double counting   =      4915.22768225    -5334.76892552
  entropy T*S    EENTRO =        -0.04713485
  eigenvalues    EBANDS =        -0.43393209
  atomic energy  EATOM  =      5560.14551830
  ---------------------------------------------------
  free energy    TOTEN  =       226.87869566 eV

  energy without entropy =      226.92583051  energy(sigma->0) =      226.90226308


--------------------------------------------------------------------------------------------------------




--------------------------------------- Iteration      1(   2)  ---------------------------------------


    TRIAL :  cpu time      0.6206: real time      0.6208
    CORREC:  cpu time      0.0004: real time      0.0004
    --------------------------------------------
      LOOP:  cpu time      0.6237: real time      0.6283

 eigenvalue-minimisations  :   192
 total energy-change (2. order) :-0.2233517E+03  (-0.2230826E+03)
 number of electron      44.0000000 magnetization 
 augmentation part       44.0000000 magnetization 

 Free energy of the ion-electron system (eV)
  ---------------------------------------------------
  alpha Z        PSCENC =         1.18414354
  Ewald energy   TEWEN  =      1143.30920876
  -Hartree energ DENC   =     -6231.77849323
  -exchange      EXHF   =         0.00000000
  -V(xc)+E(xc)   XCENC  =       174.04062849
  PAW double counting   =      4915.22768225    -5334.76892552
  entropy T*S    EENTRO =        -0.00000000
  eigenvalues    EBANDS =      -223.83272464
  atomic energy  EATOM  =      5560.14551830
  ---------------------------------------------------
  free energy    TOTEN  =         3.52703795 eV

  energy without entropy =        3.52703795  energy(sigma->0) =        3.52703795


--------------------------------------------------------------------------------------------------------




--------------------------------------- Iteration      1(   3)  ---------------------------------------


    TRIAL :  cpu time      0.6360: real time      0.6361
    CORREC:  cpu time      0.0004: real time      0.0004
    --------------------------------------------
      LOOP:  cpu time      0.6391: real time      0.6432

 eigenvalue-minimisations  :   192
 total energy-change (2. order) :-0.9255747E+01  (-0.9255747E+01)
 number of electron      44.0000000 magnetization 
 augmentation part       44.0000000 magnetization 

 Free energy of the ion-electron system (eV)
  ---------------------------------------------------
  alpha Z        PSCENC =         1.18414354
  Ewald energy   TEWEN  =      1143.30920876
  -Hartree energ DENC   =     -6231.77849323
  -exchange      EXHF   =         0.00000000
  -V(xc)+E(xc)   XCENC  =       174.04062849
  PAW double counting   =      4915.22768225    -5334.76892552
  entropy T*S    EENTRO =        -0.00000000
  eigenvalues    EBANDS =      -233.08847158
  atomic energy  EATOM  =      5560.14551830
  ---------------------------------------------------
  free energy    TOTEN  =        -5.72870898 eV

  energy without entropy =       -5.72870898  energy(sigma->0) =       -5.72870898


--------------------------------------------------------------------------------------------------------




--------------------------------------- Iteration      1(   4)  ---------------------------------------


    TRIAL :  cpu time      0.6245: real time      0.6247
    CORREC:  cpu time      0.0003: real time      0.0003
    --------------------------------------------
      LOOP:  cpu time      0.6318: real time      0.6322

 eigenvalue-minimisations  :   192
 total energy-change (2. order) :-0.1918824E+00  (-0.1918824E+00)
 number of electron      44.0000000 magnetization 
 augmentation part       44.0000000 magnetization 

 Free energy of the ion-electron system (eV)
  ---------------------------------------------------
  alpha Z        PSCENC =         1.18414354
  Ewald energy   TEWEN  =      1143.30920876
  -Hartree energ DENC   =     -6231.77849323
  -exchange      EXHF   =         0.00000000
  -V(xc)+E(xc)   XCENC  =       174.04062849
  PAW double counting   =      4915.22768225    -5334.76892552
  entropy T*S    EENTRO =        -0.00000000
  eigenvalues    EBANDS =      -233.28035396
  atomic energy  EATOM  =      5560.14551830
  ---------------------------------------------------
  free energy    TOTEN  =        -5.92059137 eV

  energy without entropy =       -5.92059137  energy(sigma->0) =       -5.92059137


--------------------------------------------------------------------------------------------------------




--------------------------------------- Iteration      1(   5)  ---------------------------------------


    TRIAL :  cpu time      1.9969: real time      1.9975
    CORREC:  cpu time      0.0004: real time      0.0003
    CHARGE:  cpu time      0.6634: real time      0.6645
    --------------------------------------------
      LOOP:  cpu time      2.6657: real time      2.6706

 eigenvalue-minimisations  :   384
 total energy-change (2. order) :-0.2702899E-02  (-0.2702899E-02)
 number of electron      43.9999943 magnetization 
 augmentation part       28.2680008 magnetization 

 Free energy of the ion-electron system (eV)
  ---------------------------------------------------
  alpha Z        PSCENC =         1.18414354
  Ewald energy   TEWEN  =      1143.30920876
  -Hartree energ DENC   =     -6231.77849323
  -exchange      EXHF   =         0.00000000
  -V(xc)+E(xc)   XCENC  =       174.04062849
  PAW double counting   =      4915.22768225    -5334.76892552
  entropy T*S    EENTRO =        -0.00000000
  eigenvalues    EBANDS =      -233.28305686
  atomic energy  EATOM  =      5560.14551830
  ---------------------------------------------------
  free energy    TOTEN  =        -5.92329427 eV

  energy without entropy =       -5.92329427  energy(sigma->0) =       -5.92329427


--------------------------------------------------------------------------------------------------------




--------------------------------------- Iteration      1(   6)  ---------------------------------------


    POTLOK:  cpu time      0.1201: real time      0.1201
    SETDIJ:  cpu time      0.1802: real time      0.1802
    TRIAL :  cpu time      0.9141: real time      0.9145
    CORREC:  cpu time      1.0573: real time      1.0575
    CHARGE:  cpu time      0.6640: real time      0.6640
    --------------------------------------------
      LOOP:  cpu time      2.9397: real time      2.9444

 eigenvalue-minimisations  :     0
 total energy-change (2. order) : 0.1504850E+01  (-0.4740419E+00)
 number of electron      43.9999942 magnetization 
 augmentation part       28.6418750 magnetization 

 Free energy of the ion-electron system (eV)
  ---------------------------------------------------
  alpha Z        PSCENC =         1.18414354
  Ewald energy   TEWEN  =      1143.30920876
  -Hartree energ DENC   =     -6211.32190862
  -exchange      EXHF   =         0.00000000
  -V(xc)+E(xc)   XCENC  =       172.10552102
  PAW double counting   =      4998.31101422    -5411.06987131
  entropy T*S    EENTRO =        -0.00000000
  eigenvalues    EBANDS =      -257.08207039
  atomic energy  EATOM  =      5560.14551830
  ---------------------------------------------------
  free energy    TOTEN  =        -4.41844448 eV

  energy without entropy =       -4.41844448  energy(sigma->0) =       -4.41844448


--------------------------------------------------------------------------------------------------------




--------------------------------------- Iteration      1(   7)  ---------------------------------------


    POTLOK:  cpu time      0.1196: real time      0.1196
    SETDIJ:  cpu time      0.1801: real time      0.1801
    TRIAL :  cpu time      0.2491: real time      0.2491
    CORREC:  cpu time      1.0526: real time      1.0526
    CHARGE:  cpu time      0.6667: real time      0.6667
    --------------------------------------------
      LOOP:  cpu time      2.2759: real time      2.2766

 eigenvalue-minimisations  :     0
 total energy-change (2. order) :-0.4583114E+00  (-0.3542250E+00)
 number of electron      43.9999942 magnetization 
 augmentation part       28.5536978 magnetization 

 Free energy of the ion-electron system (eV)
  ---------------------------------------------------
  alpha Z        PSCENC =         1.18414354
  Ewald energy   TEWEN  =      1143.30920876
  -Hartree energ DENC   =     -6256.73010584
  -exchange      EXHF   =         0.00000000
  -V(xc)+E(xc)   XCENC  =       174.05810695
  PAW double counting   =      5028.04966084    -5455.01164143
  entropy T*S    EENTRO =        -0.00000000
  eigenvalues    EBANDS =      -199.88164700
  atomic energy  EATOM  =      5560.14551830
  ---------------------------------------------------
  free energy    TOTEN  =        -4.87675588 eV

  energy without entropy =       -4.87675588  energy(sigma->0) =       -4.87675588


--------------------------------------------------------------------------------------------------------




--------------------------------------- Iteration      1(   8)  ---------------------------------------


    POTLOK:  cpu time      0.1229: real time      0.1229
    SETDIJ:  cpu time      0.1765: real time      0.1765
    TRIAL :  cpu time      0.2492: real time      0.2492
    CORREC:  cpu time      1.0517: real time      1.0518
    CHARGE:  cpu time      0.6630: real time      0.6631
    --------------------------------------------
      LOOP:  cpu time      2.2660: real time      2.2715

 eigenvalue-minimisations  :     0
 total energy-change (2. order) :-0.3530373E+00  (-0.6005032E-01)
 number of electron      43.9999942 magnetization 
 augmentation part       28.6185426 magnetization 

 Free energy of the ion-electron system (eV)
  ---------------------------------------------------
  alpha Z        PSCENC =         1.18414354
  Ewald energy   TEWEN  =      1143.30920876
  -Hartree energ DENC   =     -6230.70621842
  -exchange      EXHF   =         0.00000000
  -V(xc)+E(xc)   XCENC  =       173.31907028
  PAW double counting   =      5007.52357132    -5429.40130679
  entropy T*S    EENTRO =        -0.00000000
  eigenvalues    EBANDS =      -230.60378019
  atomic energy  EATOM  =      5560.14551830
  ---------------------------------------------------
  free energy    TOTEN  =        -5.22979321 eV

  energy without entropy =       -5.22979321  energy(sigma->0) =       -5.22979321


--------------------------------------------------------------------------------------------------------




--------------------------------------- Iteration      1(   9)  ---------------------------------------


    POTLOK:  cpu time      0.1204: real time      0.1205
    SETDIJ:  cpu time      0.1789: real time      0.1789
    TRIAL :  cpu time      0.2487: real time      0.2488
    CORREC:  cpu time      1.0525: real time      1.0525
    CHARGE:  cpu time      0.6636: real time      0.6636
    --------------------------------------------
      LOOP:  cpu time      2.2727: real time      2.2730

 eigenvalue-minimisations  :     0
 total energy-change (2. order) :-0.6015549E-01  (-0.1662449E-01)
 number of electron      43.9999942 magnetization 
 augmentation part       28.5626029 magnetization 

 Free energy of the ion-electron system (eV)
  ---------------------------------------------------
  alpha Z        PSCENC =         1.18414354
  Ewald energy   TEWEN  =      1143.30920876
  -Hartree energ DENC   =     -6240.24023337
  -exchange      EXHF   =         0.00000000
  -V(xc)+E(xc)   XCENC  =       173.71613730
  PAW double counting   =      5017.40268232    -5441.51848387
  entropy T*S    EENTRO =        -0.00000000
  eigenvalues    EBANDS =      -219.28892167
  atomic energy  EATOM  =      5560.14551830
  ---------------------------------------------------
  free energy    TOTEN  =        -5.28994870 eV

  energy without entropy =       -5.28994870  energy(sigma->0) =       -5.28994870


--------------------------------------------------------------------------------------------------------




--------------------------------------- Iteration      1(  10)  ---------------------------------------


    POTLOK:  cpu time      0.1197: real time      0.1197
    SETDIJ:  cpu time      0.1801: real time      0.1808
    TRIAL :  cpu time      0.2486: real time      0.2486
    CORREC:  cpu time      1.0513: real time      1.0514
    CHARGE:  cpu time      0.6609: real time      0.6610
    --------------------------------------------
      LOOP:  cpu time      2.2696: real time      2.2707

 eigenvalue-minimisations  :     0
 total energy-change (2. order) :-0.1664400E-01  (-0.1898915E-01)
 number of electron      43.9999942 magnetization 
 augmentation part       28.5890559 magnetization 

 Free energy of the ion-electron system (eV)
  ---------------------------------------------------
  alpha Z        PSCENC =         1.18414354
  Ewald energy   TEWEN  =      1143.30920876
  -Hartree energ DENC   =     -6232.87106538
  -exchange      EXHF   =         0.00000000
  -V(xc)+E(xc)   XCENC  =       173.41900691
  PAW double counting   =      5013.17946924    -5434.90619939
  entropy T*S    EENTRO =        -0.00000000
  eigenvalues    EBANDS =      -228.76667469
  atomic energy  EATOM  =      5560.14551830
  ---------------------------------------------------
  free energy    TOTEN  =        -5.30659270 eV

  energy without entropy =       -5.30659270  energy(sigma->0) =       -5.30659270


--------------------------------------------------------------------------------------------------------




--------------------------------------- Iteration      1(  11)  ---------------------------------------


    POTLOK:  cpu time      0.1228: real time      0.1228
    SETDIJ:  cpu time      0.1799: real time      0.1799
    TRIAL :  cpu time      0.2479: real time      0.2479
    CORREC:  cpu time      1.0518: real time      1.0519
    CHARGE:  cpu time      0.6604: real time      0.6604
    --------------------------------------------
      LOOP:  cpu time      2.2668: real time      2.2703

 eigenvalue-minimisations  :     0
 total energy-change (2. order) :-0.1905189E-01  (-0.2045855E-02)
 number of electron      43.9999942 magnetization 
 augmentation part       28.5851258 magnetization 

 Free energy of the ion-electron system (eV)
  ---------------------------------------------------
  alpha Z        PSCENC =         1.18414354
  Ewald energy   TEWEN  =      1143.30920876
  -Hartree energ DENC   =     -6235.63195045
  -exchange      EXHF   =         0.00000000
  -V(xc)+E(xc)   XCENC  =       173.55330532
  PAW double counting   =      5014.26742312    -5436.65031484
  entropy T*S    EENTRO =        -0.00000000
  eigenvalues    EBANDS =      -225.50297834
  atomic energy  EATOM  =      5560.14551830
  ---------------------------------------------------
  free energy    TOTEN  =        -5.32564459 eV

  energy without entropy =       -5.32564459  energy(sigma->0) =       -5.32564459


--------------------------------------------------------------------------------------------------------




--------------------------------------- Iteration      1(  12)  ---------------------------------------


    POTLOK:  cpu time      0.1207: real time      0.1207
    SETDIJ:  cpu time      0.1799: real time      0.1799
    TRIAL :  cpu time      0.2487: real time      0.2487
    CORREC:  cpu time      1.0495: real time      1.0496
    CHARGE:  cpu time      0.6632: real time      0.6632
    --------------------------------------------
      LOOP:  cpu time      2.2647: real time      2.2702

 eigenvalue-minimisations  :     0
 total energy-change (2. order) :-0.2045838E-02  (-0.1466120E-02)
 number of electron      43.9999942 magnetization 
 augmentation part       28.5896435 magnetization 

 Free energy of the ion-electron system (eV)
  ---------------------------------------------------
  alpha Z        PSCENC =         1.18414354
  Ewald energy   TEWEN  =      1143.30920876
  -Hartree energ DENC   =     -6234.77920587
  -exchange      EXHF   =         0.00000000
  -V(xc)+E(xc)   XCENC  =       173.51564965
  PAW double counting   =      5012.93355918    -5435.09096310
  entropy T*S    EENTRO =        -0.00000000
  eigenvalues    EBANDS =      -226.54560089
  atomic energy  EATOM  =      5560.14551830
  ---------------------------------------------------
  free energy    TOTEN  =        -5.32769043 eV

  energy without entropy =       -5.32769043  energy(sigma->0) =       -5.32769043


--------------------------------------------------------------------------------------------------------




--------------------------------------- Iteration      1(  13)  ---------------------------------------


    POTLOK:  cpu time      0.1180: real time      0.1180
    SETDIJ:  cpu time      0.1810: real time      0.1810
    TRIAL :  cpu time      0.2493: real time      0.2493
    CORREC:  cpu time      1.0490: real time      1.0491
    CHARGE:  cpu time      0.6655: real time      0.6655
    --------------------------------------------
      LOOP:  cpu time      2.2704: real time      2.2708

 eigenvalue-minimisations  :     0
 total energy-change (2. order) :-0.1464882E-02  (-0.3855485E-03)
 number of electron      43.9999942 magnetization 
 augmentation part       28.5929551 magnetization 

 Free energy of the ion-electron system (eV)
  ---------------------------------------------------
  alpha Z        PSCENC =         1.18414354
  Ewald energy   TEWEN  =      1143.30920876
  -Hartree energ DENC   =     -6234.99421482
  -exchange      EXHF   =         0.00000000
  -V(xc)+E(xc)   XCENC  =       173.52486575
  PAW double counting   =      5012.40168746    -5434.68146559
  entropy T*S    EENTRO =        -0.00000000
  eigenvalues    EBANDS =      -226.21889870
  atomic energy  EATOM  =      5560.14551830
  ---------------------------------------------------
  free energy    TOTEN  =        -5.32915531 eV

  energy without entropy =       -5.32915531  energy(sigma->0) =       -5.32915531


--------------------------------------------------------------------------------------------------------




--------------------------------------- Iteration      1(  14)  ---------------------------------------


    POTLOK:  cpu time      0.1170: real time      0.1170
    SETDIJ:  cpu time      0.1800: real time      0.1800
    TRIAL :  cpu time      0.2510: real time      0.2510
    CORREC:  cpu time      1.0449: real time      1.0456
    CHARGE:  cpu time      0.6657: real time      0.6658
    --------------------------------------------
      LOOP:  cpu time      2.2614: real time      2.2670

 eigenvalue-minimisations  :     0
 total energy-change (2. order) :-0.3864022E-03  (-0.5688126E-04)
 number of electron      43.9999942 magnetization 
 augmentation part       28.5898167 magnetization 

 Free energy of the ion-electron system (eV)
  ---------------------------------------------------
  alpha Z        PSCENC =         1.18414354
  Ewald energy   TEWEN  =      1143.30920876
  -Hartree energ DENC   =     -6235.26681508
  -exchange      EXHF   =         0.00000000
  -V(xc)+E(xc)   XCENC  =       173.53839336
  PAW double counting   =      5012.47408586    -5434.86830602
  entropy T*S    EENTRO =        -0.00000000
  eigenvalues    EBANDS =      -225.84577043
  atomic energy  EATOM  =      5560.14551830
  ---------------------------------------------------
  free energy    TOTEN  =        -5.32954172 eV

  energy without entropy =       -5.32954172  energy(sigma->0) =       -5.32954172


--------------------------------------------------------------------------------------------------------




--------------------------------------- Iteration      1(  15)  ---------------------------------------


    POTLOK:  cpu time      0.1196: real time      0.1196
    SETDIJ:  cpu time      0.1778: real time      0.1778
    TRIAL :  cpu time      0.2485: real time      0.2485
    CORREC:  cpu time      1.0503: real time      1.0504
    CHARGE:  cpu time      0.6635: real time      0.6636
    --------------------------------------------
      LOOP:  cpu time      2.2648: real time      2.2693

 eigenvalue-minimisations  :     0
 total energy-change (2. order) :-0.5713080E-04  (-0.5522493E-04)
 number of electron      43.9999942 magnetization 
 augmentation part       28.5909688 magnetization 

 Free energy of the ion-electron system (eV)
  ---------------------------------------------------
  alpha Z        PSCENC =         1.18414354
  Ewald energy   TEWEN  =      1143.30920876
  -Hartree energ DENC   =     -6234.82298887
  -exchange      EXHF   =         0.00000000
  -V(xc)+E(xc)   XCENC  =       173.52108520
  PAW double counting   =      5012.19385502    -5434.45812730
  entropy T*S    EENTRO =        -0.00000000
  eigenvalues    EBANDS =      -226.40229350
  atomic energy  EATOM  =      5560.14551830
  ---------------------------------------------------
  free energy    TOTEN  =        -5.32959885 eV

  energy without entropy =       -5.32959885  energy(sigma->0) =       -5.32959885


--------------------------------------------------------------------------------------------------------




--------------------------------------- Iteration      1(  16)  ---------------------------------------


    POTLOK:  cpu time      0.1175: real time      0.1175
    SETDIJ:  cpu time      0.1810: real time      0.1810
    TRIAL :  cpu time      0.2495: real time      0.2495
    CORREC:  cpu time      1.0479: real time      1.0480
    CHARGE:  cpu time      0.6611: real time      0.6611
    --------------------------------------------
      LOOP:  cpu time      2.2595: real time      2.2652

 eigenvalue-minimisations  :     0
 total energy-change (2. order) :-0.5547261E-04  (-0.9448672E-05)
 number of electron      43.9999942 magnetization 
 augmentation part       28.5902753 magnetization 

 Free energy of the ion-electron system (eV)
  ---------------------------------------------------
  alpha Z        PSCENC =         1.18414354
  Ewald energy   TEWEN  =      1143.30920876
  -Hartree energ DENC   =     -6235.02573808
  -exchange      EXHF   =         0.00000000
  -V(xc)+E(xc)   XCENC  =       173.52910449
  PAW double counting   =      5012.42690907    -5434.72749511
  entropy T*S    EENTRO =        -0.00000000
  eigenvalues    EBANDS =      -226.17130530
  atomic energy  EATOM  =      5560.14551830
  ---------------------------------------------------
  free energy    TOTEN  =        -5.32965432 eV

  energy without entropy =       -5.32965432  energy(sigma->0) =       -5.32965432


--------------------------------------------------------------------------------------------------------




--------------------------------------- Iteration      1(  17)  ---------------------------------------


    POTLOK:  cpu time      0.1160: real time      0.1160
    SETDIJ:  cpu time      0.1818: real time      0.1818
    TRIAL :  cpu time      0.2490: real time      0.2490
    CORREC:  cpu time      1.0512: real time      1.0513
    CHARGE:  cpu time      0.6615: real time      0.6615
    --------------------------------------------
      LOOP:  cpu time      2.2627: real time      2.2673

 eigenvalue-minimisations  :     0
 total energy-change (2. order) :-0.9226022E-05  (-0.1662431E-05)
 number of electron      43.9999942 magnetization 
 augmentation part       28.5908706 magnetization 

 Free energy of the ion-electron system (eV)
  ---------------------------------------------------
  alpha Z        PSCENC =         1.18414354
  Ewald energy   TEWEN  =      1143.30920876
  -Hartree energ DENC   =     -6234.97107915
  -exchange      EXHF   =         0.00000000
  -V(xc)+E(xc)   XCENC  =       173.52588987
  PAW double counting   =      5012.39935997    -5434.67569085
  entropy T*S    EENTRO =        -0.00000000
  eigenvalues    EBANDS =      -226.24701398
  atomic energy  EATOM  =      5560.14551830
  ---------------------------------------------------
  free energy    TOTEN  =        -5.32966355 eV

  energy without entropy =       -5.32966355  energy(sigma->0) =       -5.32966355


--------------------------------------------------------------------------------------------------------




--------------------------------------- Iteration      1(  18)  ---------------------------------------


    POTLOK:  cpu time      0.1176: real time      0.1176
    SETDIJ:  cpu time      0.1805: real time      0.1805
    TRIAL :  cpu time      0.2483: real time      0.2483
    CORREC:  cpu time      1.0492: real time      1.0493
    CHARGE:  cpu time      0.6617: real time      0.6623
    --------------------------------------------
      LOOP:  cpu time      2.2645: real time      2.2656

 eigenvalue-minimisations  :     0
 total energy-change (2. order) :-0.1603927E-05  (-0.1373303E-05)
 number of electron      43.9999942 magnetization 
 augmentation part       28.5908200 magnetization 

 Free energy of the ion-electron system (eV)
  ---------------------------------------------------
  alpha Z        PSCENC =         1.18414354
  Ewald energy   TEWEN  =      1143.30920876
  -Hartree energ DENC   =     -6235.05020877
  -exchange      EXHF   =         0.00000000
  -V(xc)+E(xc)   XCENC  =       173.52911910
  PAW double counting   =      5012.44848791    -5434.74935842
  entropy T*S    EENTRO =        -0.00000000
  eigenvalues    EBANDS =      -226.14657558
  atomic energy  EATOM  =      5560.14551830
  ---------------------------------------------------
  free energy    TOTEN  =        -5.32966515 eV

  energy without entropy =       -5.32966515  energy(sigma->0) =       -5.32966515


--------------------------------------------------------------------------------------------------------




--------------------------------------- Iteration      1(  19)  ---------------------------------------


    POTLOK:  cpu time      0.1177: real time      0.1177
    SETDIJ:  cpu time      0.1807: real time      0.1807
    TRIAL :  cpu time      0.2480: real time      0.2480
    CORREC:  cpu time      1.0504: real time      1.0505
    CHARGE:  cpu time      0.6654: real time      0.6655
    --------------------------------------------
      LOOP:  cpu time      2.2648: real time      2.2697

 eigenvalue-minimisations  :     0
 total energy-change (2. order) :-0.1379829E-05  (-0.2337120E-06)
 number of electron      43.9999942 magnetization 
 augmentation part       28.5905690 magnetization 

 Free energy of the ion-electron system (eV)
  ---------------------------------------------------
  alpha Z        PSCENC =         1.18414354
  Ewald energy   TEWEN  =      1143.30920876
  -Hartree energ DENC   =     -6235.01713766
  -exchange      EXHF   =         0.00000000
  -V(xc)+E(xc)   XCENC  =       173.52839549
  PAW double counting   =      5012.40980264    -5434.70958197
  entropy T*S    EENTRO =        -0.00000000
  eigenvalues    EBANDS =      -226.18001563
  atomic energy  EATOM  =      5560.14551830
  ---------------------------------------------------
  free energy    TOTEN  =        -5.32966653 eV

  energy without entropy =       -5.32966653  energy(sigma->0) =       -5.32966653


--------------------------------------------------------------------------------------------------------




--------------------------------------- Iteration      1(  20)  ---------------------------------------


    POTLOK:  cpu time      0.1188: real time      0.1188
    SETDIJ:  cpu time      0.1774: real time      0.1774
    TRIAL :  cpu time      0.2486: real time      0.2486
    CORREC:  cpu time      1.0459: real time      1.0460
    EDDIAG:  cpu time      0.1114: real time      0.1114
    CHARGE:  cpu time      0.6677: real time      0.6678
    --------------------------------------------
      LOOP:  cpu time      2.3726: real time      2.3774

 eigenvalue-minimisations  :     0
 total energy-change (2. order) :-0.2203760E-06  (-0.1459210E-06)
 number of electron      43.9999942 magnetization 
 augmentation part       28.5906307 magnetization 

 Free energy of the ion-electron system (eV)
  ---------------------------------------------------
  alpha Z        PSCENC =         1.18414354
  Ewald energy   TEWEN  =      1143.30920876
  -Hartree energ DENC   =     -6234.98104952
  -exchange      EXHF   =         0.00000000
  -V(xc)+E(xc)   XCENC  =       173.52700085
  PAW double counting   =      5012.38828661    -5434.67835701
  entropy T*S    EENTRO =        -0.00000000
  eigenvalues    EBANDS =      -226.22441829
  atomic energy  EATOM  =      5560.14551830
  ---------------------------------------------------
  free energy    TOTEN  =        -5.32966675 eV

  energy without entropy =       -5.32966675  energy(sigma->0) =       -5.32966675


--------------------------------------------------------------------------------------------------------


  average scaling for gradient   1.0848


 average (electrostatic) potential at core
  the test charge radii are     0.9430
  (the norm of the test charge is              1.0000)
       1 -73.6773       2 -73.7723       3 -73.7724       4 -73.6773



 E-fermi :  -4.4035     XC(G=0):  -0.2576     alpha+bet : -0.0642

 Fermi energy:        -4.4034566967

 k-point     1 :       0.0000    0.0000    0.0000
  band No.  band energies     occupation 
      1      -6.5941      2.00000
      2      -6.1310      2.00000
      3      -5.5425      2.00000
      4      -5.5425      2.00000
      5      -5.4775      2.00000
      6      -5.4775      2.00000
      7      -5.1855      2.00000
      8      -5.0829      2.00000
      9      -5.0828      2.00000
     10      -5.0738      2.00000
     11      -5.0738      2.00000
     12      -5.0265      2.00000
     13      -4.8786      2.00000
     14      -4.8786      2.00000
     15      -4.8506      2.00000
     16      -4.8506      2.00000
     17      -4.8008      2.00000
     18      -4.8008      2.00000
     19      -4.7658      2.00000
     20      -4.6628      2.00000
     21      -4.6627      2.00000
     22      -4.6617      2.00000
     23      -3.8968      0.00000
     24      -2.3100      0.00000
     25      -1.3504      0.00000
     26      -1.3495      0.00000
     27      -0.8479      0.00000
     28      -0.8454      0.00000
     29      -0.8047      0.00000
     30      -0.0253      0.00000
     31       0.1888      0.00000
     32       0.2498      0.00000
     33       0.2570      0.00000
     34       0.3216      0.00000
     35       0.3321      0.00000
     36       0.3530      0.00000
     37       0.3812      0.00000
     38       0.4455      0.00000
     39       0.5773      0.00000
     40       0.5901      0.00000
     41       0.5974      0.00000
     42       0.6004      0.00000
     43       0.6109      0.00000
     44       0.6250      0.00000
     45       0.6428      0.00000
     46       0.6484      0.00000
     47       0.6794      0.00000
     48       0.6836      0.00000
     49       0.6994      0.00000
     50       0.7378      0.00000
     51       0.8760      0.00000
     52       0.9467      0.00000
     53       0.9685      0.00000
     54       0.9926      0.00000
     55       1.0010      0.00000
     56       1.0056      0.00000
     57       1.0511      0.00000
     58       1.0759      0.00000
     59       1.1494      0.00000
     60       1.2025      0.00000
     61       1.2739      0.00000
     62       1.3083      0.00000
     63       1.3101      0.00000
     64       1.3235      0.00000
     65       1.3337      0.00000
     66       1.3689      0.00000
     67       1.3715      0.00000
     68       1.4043      0.00000
     69       1.4103      0.00000
     70       1.4317      0.00000
     71       1.4554      0.00000
     72       1.5508      0.00000
     73       1.5557      0.00000
     74       1.5638      0.00000
     75       1.5818      0.00000
     76       1.6124      0.00000
     77       1.6292      0.00000
     78       1.6400      0.00000
     79       1.6473      0.00000
     80       1.6655      0.00000
     81       1.6769      0.00000
     82       1.6797      0.00000
     83       1.6810      0.00000
     84       1.6946      0.00000
     85       1.7238      0.00000
     86       1.7290      0.00000
     87       1.7292      0.00000
     88       1.7336      0.00000
     89       1.7876      0.00000
     90       1.8012      0.00000
     91       1.8551      0.00000
     92       1.8597      0.00000
     93       1.8617      0.00000
     94       1.8769      0.00000
     95       1.8840      0.00000
     96       1.9001      0.00000


--------------------------------------------------------------------------------------------------------


 soft charge-density along one line, spin component           1
         0         1         2         3         4         5         6         7         8         9
 total charge-density along one line

 pseudopotential strength for first ion, spin component:           1
-10.015   0.001  -0.038  -0.001   0.000   0.613  -0.000   0.029
  0.001  -9.979  -0.000   0.030   0.000  -0.000   0.586   0.000
 -0.038  -0.000  -9.971   0.000  -0.000   0.029   0.000   0.580
 -0.001   0.030   0.000  -9.979   0.000   0.000  -0.023  -0.000
  0.000   0.000  -0.000   0.000 -10.008  -0.000  -0.000   0.000
  0.613  -0.000   0.029   0.000  -0.000   6.616   0.000  -0.018
 -0.000   0.586   0.000  -0.023  -0.000   0.000   6.632  -0.000
  0.029   0.000   0.580  -0.000   0.000  -0.018  -0.000   6.637
  0.000  -0.023  -0.000   0.586  -0.000  -0.000   0.015   0.000
 -0.000  -0.000   0.000  -0.000   0.610   0.000   0.000  -0.000
 -0.011   0.000  -0.006  -0.000  -0.000  -0.001   0.000  -0.001
 -0.020   0.000  -0.011  -0.000  -0.000  -0.003   0.000  -0.002
  0.018  -0.000   0.010  -0.000   0.018  -0.008   0.000  -0.004
 -0.000  -0.018  -0.000   0.018   0.000   0.000   0.008   0.000
 -0.018  -0.000  -0.010  -0.000   0.018   0.008   0.000   0.004
  0.019  -0.000   0.011  -0.000   0.020  -0.006   0.000  -0.004
 -0.000  -0.020  -0.000   0.020  -0.000   0.000   0.006   0.000
 -0.019  -0.000  -0.011  -0.000   0.020   0.006   0.000   0.004
 total augmentation occupancy for first ion, spin component:           1
  1.967   0.000  -0.011  -0.000   0.000   0.002  -0.000   0.013   0.000  -0.000   0.086   0.011  -0.045  -0.001   0.045   0.024
  0.000   1.979  -0.000   0.008   0.000  -0.000  -0.014  -0.000  -0.006  -0.000  -0.002  -0.000   0.002   0.029  -0.001  -0.001
 -0.011  -0.000   1.980   0.000  -0.000   0.013  -0.000  -0.013   0.000   0.000   0.050   0.006  -0.026   0.000   0.026   0.014
 -0.000   0.008   0.000   1.979   0.000   0.000  -0.006   0.000  -0.014  -0.000   0.002   0.000  -0.001  -0.029   0.002   0.000
  0.000   0.000  -0.000   0.000   1.971  -0.000  -0.000   0.000  -0.000  -0.007  -0.000  -0.000  -0.029  -0.000  -0.029   0.024
  0.002  -0.000   0.013   0.000  -0.000   0.006  -0.000   0.003   0.000  -0.000  -0.074   0.003  -0.010  -0.000   0.010   0.001
 -0.000  -0.014  -0.000  -0.006  -0.000  -0.000   0.001  -0.000  -0.001  -0.000   0.001  -0.000   0.000   0.003  -0.000  -0.000
  0.013  -0.000  -0.013   0.000   0.000   0.003  -0.000   0.002   0.000  -0.000  -0.043   0.002  -0.006  -0.000   0.006   0.001
  0.000  -0.006   0.000  -0.014  -0.000   0.000  -0.001   0.000   0.001  -0.000  -0.001   0.000  -0.000  -0.003   0.000   0.000
 -0.000  -0.000   0.000  -0.000  -0.007  -0.000  -0.000  -0.000  -0.000   0.003   0.000  -0.000  -0.003   0.000  -0.003   0.000
  0.086  -0.002   0.050   0.002  -0.000  -0.074   0.001  -0.043  -0.001   0.000   1.391  -0.054   0.130   0.003  -0.130  -0.012
  0.011  -0.000   0.006   0.000  -0.000   0.003  -0.000   0.002   0.000  -0.000  -0.054   0.002  -0.006  -0.000   0.006   0.001
 -0.045   0.002  -0.026  -0.001  -0.029  -0.010   0.000  -0.006  -0.000  -0.003   0.130  -0.006   0.038   0.000  -0.027  -0.003
 -0.001   0.029   0.000  -0.029  -0.000  -0.000   0.003  -0.000  -0.003   0.000   0.003  -0.000   0.000   0.011  -0.000  -0.000
  0.045  -0.001   0.026   0.002  -0.029   0.010  -0.000   0.006   0.000  -0.003  -0.130   0.006  -0.027  -0.000   0.038   0.002
  0.024  -0.001   0.014   0.000   0.024   0.001  -0.000   0.001   0.000   0.000  -0.012   0.001  -0.003  -0.000   0.002   0.001
  0.000  -0.024  -0.001   0.024   0.000   0.000  -0.000   0.000   0.000  -0.000  -0.000   0.000  -0.000  -0.001   0.000   0.000
 -0.024   0.000  -0.014  -0.001   0.024  -0.001   0.000  -0.001  -0.000   0.000   0.012  -0.001   0.002   0.000  -0.003  -0.000


------------------------ aborting loop because EDIFF is reached ----------------------------------------


    FORLOC:  cpu time      0.0027: real time      0.0027
    FORNL :  cpu time      0.1309: real time      0.1312
    STRESS:  cpu time      0.3924: real time      0.3925
    FORCOR:  cpu time      0.0814: real time      0.0814
    OFIELD:  cpu time      0.0003: real time      0.0003

  Hirshfeld charges:
            ion         q(e)     
   ------------------------------
      1     Cu      -0.03152264
      2     Cu       0.03150466
      3     Cu       0.03154123
      4     Cu      -0.03152325

  Atomic reference data used in the T-S method for vdW correction:
            C6at              R0at           ALPHAat      REFSTATE
            (au)              (au)            (au)                
   ---------------------------------------------------------------
   Cu        253.000          3.761         42.000         0

  Tkatchenko/Scheffler method for vdW energy calculation
  ---------------------------------------------------------------------------------------------

  Parameters of vdW forcefield:
            C6ts              R0ts           ALPHAts        RELVOL
            (au)              (au)            (au)                
   ---------------------------------------------------------------
   Cu        244.975          3.740         41.328          0.98400972
   Cu        221.847          3.679         39.329          0.93640739
   Cu        221.673          3.679         39.314          0.93604161
   Cu        244.967          3.740         41.328          0.98399264

  vdW correction parametrized for the method b?1B?

  IVDW =  20
  VDW_RADIUS =    50.000 A
  VDW_IDAMPF =  0
  VDW_S6 =     1.000
  VDW_SR =     0.600
  VDW_D =    20.000
  LVDW_ONECELL = F F F
  LVDW_SAMETYPE T
  LVDW_EWALD = F

  Number of pair interactions contributing to vdW energy:     546
  Edisp (eV):   -0.94415
    FORVDW:  cpu time      6.0078: real time      6.0085

  FORCE on cell =-STRESS in cart. coord.  units (eV):
  Direction    XX          YY          ZZ          XY          YZ          ZX
  --------------------------------------------------------------------------------------
  Alpha Z     1.18414     1.18414     1.18414
  Ewald     915.52544   915.52437  -687.74104 -1388.75739    -0.00018    -0.00008
  Hartree  2534.79643  2534.79596  1165.39789 -1157.61176    -0.00010    -0.00005
  E(xc)    -256.96320  -256.96321  -257.89618    -0.93333    -0.00000    -0.00000
  Local   -3814.73141 -3814.72994  -853.03014  2535.40321     0.00028     0.00014
  n-local  -111.51943  -111.51940  -108.61936     2.90130     0.00002     0.00002
  augment   368.29779   368.29781   372.82870     4.53159     0.00003     0.00003
  Kinetic   361.73116   361.73120   367.82452     6.09330     0.00000    -0.00000
  Fock        0.00000     0.00000     0.00000     0.00000     0.00000     0.00000
  vdW         1.45781     1.45780     0.00064    -1.45810     0.00001    -0.00001
  -------------------------------------------------------------------------------------
  Total      -0.22127    -0.22127    -0.05082     0.16881     0.00000     0.00000
  in kB      -0.03588    -0.03588    -0.00824     0.02737     0.00000     0.00000
  external pressure =       -0.03 kB  Pullay stress =        0.00 kB


 VOLUME and BASIS-vectors are now :
 -----------------------------------------------------------------------------
  energy-cutoff  :      520.00
  volume of cell :     9881.61
      direct lattice vectors                 reciprocal lattice vectors
    21.138852197  0.000000000  0.000000000     0.047306258  0.000000000  0.000000000
     0.000000000 21.138852197  0.000000000     0.000000000  0.047306258  0.000000000
     0.000000000  0.000000000 22.113885220     0.000000000  0.000000000  0.045220457

  length of vectors
    21.138852197 21.138852197 22.113885220     0.047306258  0.047306258  0.045220457


 FORCES acting on ions:
    Electron-Ion                     Ewald-Force                    Non-Local-Force
 -----------------------------------------------------------------------------------------------
   -.672E+02 0.672E+02 0.509E+01   0.605E+02 -.605E+02 -.489E+01   0.677E+01 -.677E+01 -.192E+00
   0.292E+03 -.292E+03 -.506E+01   -.283E+03 0.283E+03 0.489E+01   -.865E+01 0.865E+01 0.170E+00
   -.292E+03 0.292E+03 -.506E+01   0.283E+03 -.283E+03 0.489E+01   0.865E+01 -.865E+01 0.170E+00
   0.672E+02 -.672E+02 0.509E+01   -.605E+02 0.605E+02 -.489E+01   -.677E+01 0.677E+01 -.192E+00
 -----------------------------------------------------------------------------------------------
   -.123E-01 -.102E-01 0.456E-01   0.000E+00 0.000E+00 0.000E+00   0.000E+00 0.000E+00 -.438E-01


 POSITION                                       TOTAL-FORCE (eV/Angst)
 -----------------------------------------------------------------------------------
      8.42022     12.71964     13.21830         0.819478     -0.819478     -0.009863
      6.77748     14.36235     13.25117        -0.297304      0.297304      0.009863
     12.24845      8.89138     13.25117         0.297304     -0.297304      0.009863
     10.60574     10.53411     13.21830        -0.819478      0.819478     -0.009863
 -----------------------------------------------------------------------------------
    total drift:                               -0.012336     -0.010241      0.001781


--------------------------------------------------------------------------------------------------------



  FREE ENERGIE OF THE ION-ELECTRON SYSTEM (eV)
  ---------------------------------------------------
  free  energy   TOTEN  =        -6.27381718 eV

  energy  without entropy=       -6.27381718  energy(sigma->0) =       -6.27381718



--------------------------------------------------------------------------------------------------------


    POTLOK:  cpu time      0.3763: real time      0.3763


--------------------------------------------------------------------------------------------------------


     LOOP+:  cpu time     47.4670: real time     47.5395
    4ORBIT:  cpu time      0.0000: real time      0.0000

 total amount of memory used by VASP MPI-rank0   118517. kBytes
=======================================================================

   base      :      30000. kBytes
   nonlr-proj:       1542. kBytes
   fftplans  :      35474. kBytes
   grid      :      48291. kBytes
   one-center:         15. kBytes
   wavefun   :       3195. kBytes

  
  
 General timing and accounting informations for this job:
 ========================================================
  
                  Total CPU time used (sec):       70.521
                            User time (sec):       69.004
                          System time (sec):        1.517
                         Elapsed time (sec):       72.535
  
                   Maximum memory used (kb):      282664.
                   Average memory used (kb):          N/A
  
                          Minor page faults:        58609
                          Major page faults:            0
                 Voluntary context switches:         9995
