 **********************************************************************
                          MRCC program system
 **********************************************************************
 
                              Written by
     Mihaly Kallay, Peter R. Nagy, David Mester, Laszlo Gyevi-Nagy,
        Jozsef Csoka, P. Bernat Szabo, Zoltan Rolik, Gyula Samu,
     Jozsef Csontos, Bence Hegely, Adam Ganyecz, Istvan Ladjanszki,
       Lorant Szegedy, Bence Ladoczki, Klara Petrov, Mate Farkas,
                    Pal D. Mezei, and Reka A. Horvath
 
        Department of Physical Chemistry and Materials Science
            Budapest University of Technology and Economics
                  Budapest P.O.Box 91, H-1521 Hungary
 
                              www.mrcc.hu
 
                      Release date: March 18, 2022

 ************************ 2022-11-12 09:41:29 *************************
 Executing minp...

 Reading input from MINP...
 
 Input file:
 
calc=FNO-CCSD(T)
verbosity=3
mem=150GB
unit=angs
scfiguess=small
scfalg=locfit1
lcorthr=tight
ccmaxit=400
ccsdalg=dfdirect
ccsdthreads=4
ccsdmkl=thr
ptthreads=4
lnoepsv=1e-5
naf_cor=1e-2
ECP=MCDHF-ECP-10
basis=bse_ACVDZ
basis_sm=def2-SVP
dfbasis_scf=def2-QZVPP-RI-JK
dfbasis_cor=bse_ACVDZ_mp2fit
core=0
unit=angs
geom=xyz
    4
Cu4
Cu    -0.79550424     2.19091526    -0.08195085
Cu    -1.03012119    -2.19091526    -0.91001768
Cu    -0.43608716    -0.14643675    -0.22475424
Cu     1.03012119     1.32773866     0.91001768

ghost=serialno

 
 
 Checking keyword combinations...
 
 Keywords:
 
 active=none
 agrid=ld0006-ld0590
 agrid_pssp=ld0006-ld0194
 agrid_pssp_sm=ld0006-ld0074
 basis=bse_acvdz
 basis_sm=def2-svp
 basopt=off
 bfbasis=none
 bfgsmem=10
 bfgstol=1.0d-3
 bpcompo=0.985
 bpcompv=0.98
 bpdfo=0.985
 bpocc=0.985
 bppdo=0.985
 bppdv=0.98
 bpedo=0.985
 bpedv=0.98
 calc=ccsd(t)
 ccmaxit=400
 ccprog=ccsd
 ccsdalg=dfdirect
 ccsdmkl=thr
 ccsdrest=trf
 ccsdthreads=4
 cctol=6
 charge=0
 cialg=auto
 ciguess=off
 cmpgrp=auto
 comprest=off
 core=corr
 corembed=off
 csapprox=off
 cvs=off
 dboc=off
 delocsomofact=
 dendec=cholesky
 dens=0
 dfalg=lineq
 dfbasis_cab=none
 dfbasis_cor=bse_acvdz_mp2fit
 dfbasis_scf=def2-qzvpp-ri-jk
 dfbasis_scf_sm=def2-qzvpp-ri-jk
 dfintran=drpa
 dft=off
 dhexc=adc(2)
 diag=david
 docc=
 domrad=10.d0
 drpaalg=fit
 dual=off
 dual_df=off
 ecp=mcdhf-ecp-10
 edisp=off
 edisp_embed=off
 embed=off
 etemp=300
 epert=none
 eps=
 espcharge=off
 excrad=1.0
 excrad_fin=0.100000000D-02
 fitting=coulomb
 fmm=off
 fmmord=8
 freq=off
 gamma=1.d0
 gauss=spher
 geom=xyz
 gopt=off
 ghost=serialno
 gtol=7
 grdens=off
 gridbatch_cos=2000
 grtol=10
 guido_ct=off
 hamilton=dc
 iface=none
 intalg=auto
 itol=10
 laptol=1.d-3
 lccoporder=trffirst
 lcorthr=tight
 lccrest=off
 lmp2dens=on
 lnoepso=0.d0
 lnoepsv=1e-5
 boysalg=jacobi
 localcc=off
 localcorrsymm=off
 locintrf=disk
 mact=
 maxact=off
 maxdim=100
 maxex=0
 maxmicroit=100
 mcscfiguess=hf
 mem=150gb
 mmprog=
 molden=on
 mpitasks=1
 mulmet=0
 mult=
 nacto=0
 nactv=0
 naf_amp=1.d-2
 naf_cor=1e-2
 naf_scf=off
 nafalg=albe
 naftyp=
 nchol=auto
 ndeps=1e-3
 nstate=1
 nsing=0
 nto=off
 ntrip=0
 occ=
 occri=off
 oniom=off
 oniom_eechg=off
 oniom_pcm=off
 oniom_qcorr=off
 optalg=
 optmaxit=50
 optetol=1e-6
 optex=0
 optgtol=1e-4
 optstol=1e-3
 orblocc=off
 orbloce=off
 orbloco=off
 orblocv=off
 orblocguess=cholesky
 osveps=1e-4
 ovirt=ppl
 ovltol=1e-7
 ovosnorb=80.0
 pcm=off
 popul=off
 pressure=100000
 pssp=off
 ptfreq=0.0
 ptthreads=4
 qro=off
 qscf=off
 qmmm=off
 redcost_exc=off
 redcost_tddft=off
 refdet=none
 rest=0
 rgrid=log3
 rism=off
 rohfcore=semicanonical
 rohftype=semicanonical
 scfalg=locfit1
 scf_conv=difficult
 scfdamp=0.0d0
 scfdamp_mode=off
 scfdamp_end=50
 scfdamp_dampstep=0.d0
 scfdamp_dtol=0.0d0
 scfdamp_maxfact=0.0d0
 scfdamp_minfact=0.0d0
 scfdiis=on
 scfdiis_dtol=0.0d0
 scfdiis_end=50
 scfdiis_start=2
 scfdiis_step=1
 scfdiis_watch=off
 scfdiis_wrange=10
 scfdiis_wlimit=5
 scfdiis_delmax=2
 scfdtol=7
 scfext=10
 scfguessdens=
 scfiguess=small
 scfloc=pm
 scflshift=0.20
 scflshift_end=8
 scflshift_dtol=0.0
 scflshift_gaptol=0.20
 scfmaxit=50
 scftype=
 scftol=6
 scspe=1.d0
 scsph=1.d0
 scsps=1.2d0
 scsps_t=1.2d0
 scspt=0.33333333333333
 scspt_t=0.33333333333333
 scspv=1.d0
 spairtol=1e-5
 sqmprog=
 subminp=top
 symm=
 talg=occ
 temp=298.15
 test=off
 theodore=off
 tlmo=0.999
 tpao=0.94
 tprint=off
 uncontract=off
 unit=angs
 usedisk=2
 verbosity=3
 wpairtol=0.100000000E-06
 
 Calculating integrals for small-basis SCF...

 ************************ 2022-11-12 09:41:30 *************************
 Executing integ...

 Allocation of 150.0 Gbytes of memory...
 
 
 Number of atoms:                  4
 Charge:                           0
 Number of electrons:             76
 Number of core electrons:        32
 Spin multiplicity:                1
 
                 Cartesian coordinates [bohr]      Atomic mass [AMU]  Z
   1  Cu   -1.50328515    4.14022981   -0.15486466    62.929599      29
   2  Cu   -1.94664693   -4.14022981   -1.71968418    62.929599      29
   3  Cu   -0.82408530   -0.27672535   -0.42472396    62.929599      29
   4  Cu    1.94664693    2.50906243    1.71968418    62.929599      29
 
 This molecule is an asymmetric top.
 This molecule is planar.
 
 Point group: C1  
 Computational point group: C1  
 
 Cartesian coordinates in standard orientation [bohr]
   1  Cu    3.02689208   -2.12575790    0.00003506
   2  Cu   -5.13972763   -0.00030177    0.00006538
   3  Cu   -0.91317667    0.00015074   -0.00013551
   4  Cu    3.02601221    2.12590893    0.00003508
 
 Nuclear repulsion energy [au]:        417.165650803070
 
 
 Basis set information:
 
 Maximum angular momentum: i
 Maximum number of contracted Gaussians:   16
 Maximum number of primitive Gaussians:    19
 Spherical harmonic GTOs are used.
 
 
 Conventional basis set:
 
   1  Cu def2-svp [ 14s 9p 5d 1f | 5s 3p 2d 1f ]
   2  Cu def2-svp [ 14s 9p 5d 1f | 5s 3p 2d 1f ]
   3  Cu def2-svp [ 14s 9p 5d 1f | 5s 3p 2d 1f ]
   4  Cu def2-svp [ 14s 9p 5d 1f | 5s 3p 2d 1f ]
 
 Basis functions:
            1             2             3             4             5             6             7             8             9            10
    0    1Cu1s         1Cu2s         1Cu3s         1Cu4s         1Cu5s         1Cu1pz        1Cu1py        1Cu1px        1Cu2pz        1Cu2py    
    1    1Cu2px        1Cu3pz        1Cu3py        1Cu3px        1Cu1d-2       1Cu1d-1       1Cu1d0        1Cu1d+1       1Cu1d+2       1Cu2d-2   
    2    1Cu2d-1       1Cu2d0        1Cu2d+1       1Cu2d+2       1Cu1f-3       1Cu1f-2       1Cu1f-1       1Cu1f0        1Cu1f+1       1Cu1f+2   
    3    1Cu1f+3       2Cu1s         2Cu2s         2Cu3s         2Cu4s         2Cu5s         2Cu1pz        2Cu1py        2Cu1px        2Cu2pz    
    4    2Cu2py        2Cu2px        2Cu3pz        2Cu3py        2Cu3px        2Cu1d-2       2Cu1d-1       2Cu1d0        2Cu1d+1       2Cu1d+2   
    5    2Cu2d-2       2Cu2d-1       2Cu2d0        2Cu2d+1       2Cu2d+2       2Cu1f-3       2Cu1f-2       2Cu1f-1       2Cu1f0        2Cu1f+1   
    6    2Cu1f+2       2Cu1f+3       3Cu1s         3Cu2s         3Cu3s         3Cu4s         3Cu5s         3Cu1pz        3Cu1py        3Cu1px    
    7    3Cu2pz        3Cu2py        3Cu2px        3Cu3pz        3Cu3py        3Cu3px        3Cu1d-2       3Cu1d-1       3Cu1d0        3Cu1d+1   
    8    3Cu1d+2       3Cu2d-2       3Cu2d-1       3Cu2d0        3Cu2d+1       3Cu2d+2       3Cu1f-3       3Cu1f-2       3Cu1f-1       3Cu1f0    
    9    3Cu1f+1       3Cu1f+2       3Cu1f+3       4Cu1s         4Cu2s         4Cu3s         4Cu4s         4Cu5s         4Cu1pz        4Cu1py    
   10    4Cu1px        4Cu2pz        4Cu2py        4Cu2px        4Cu3pz        4Cu3py        4Cu3px        4Cu1d-2       4Cu1d-1       4Cu1d0    
   11    4Cu1d+1       4Cu1d+2       4Cu2d-2       4Cu2d-1       4Cu2d0        4Cu2d+1       4Cu2d+2       4Cu1f-3       4Cu1f-2       4Cu1f-1   
   12    4Cu1f0        4Cu1f+1       4Cu1f+2       4Cu1f+3   
 
 Maximum number of basis functions per shell:   10
 Total number of basis functions:    124
 
 
 Fitting basis set for the SCF calculation:
 
   1  Cu def2-qzvpp-ri-jk [ 19s 14p 12d 10f 7g 3h 1i | 16s 13p 11d 9f 5g 3h 1i ]
   2  Cu def2-qzvpp-ri-jk [ 19s 14p 12d 10f 7g 3h 1i | 16s 13p 11d 9f 5g 3h 1i ]
   3  Cu def2-qzvpp-ri-jk [ 19s 14p 12d 10f 7g 3h 1i | 16s 13p 11d 9f 5g 3h 1i ]
   4  Cu def2-qzvpp-ri-jk [ 19s 14p 12d 10f 7g 3h 1i | 16s 13p 11d 9f 5g 3h 1i ]
 
 Basis functions:
            1             2             3             4             5             6             7             8             9            10
    0    1Cu1s         1Cu2s         1Cu3s         1Cu4s         1Cu5s         1Cu6s         1Cu7s         1Cu8s         1Cu9s         1Cu10s    
    1    1Cu11s        1Cu12s        1Cu13s        1Cu14s        1Cu15s        1Cu16s        1Cu1pz        1Cu1py        1Cu1px        1Cu2pz    
    2    1Cu2py        1Cu2px        1Cu3pz        1Cu3py        1Cu3px        1Cu4pz        1Cu4py        1Cu4px        1Cu5pz        1Cu5py    
    3    1Cu5px        1Cu6pz        1Cu6py        1Cu6px        1Cu7pz        1Cu7py        1Cu7px        1Cu8pz        1Cu8py        1Cu8px    
    4    1Cu9pz        1Cu9py        1Cu9px        1Cu10pz       1Cu10py       1Cu10px       1Cu11pz       1Cu11py       1Cu11px       1Cu12pz   
    5    1Cu12py       1Cu12px       1Cu13pz       1Cu13py       1Cu13px       1Cu1d-2       1Cu1d-1       1Cu1d0        1Cu1d+1       1Cu1d+2   
    6    1Cu2d-2       1Cu2d-1       1Cu2d0        1Cu2d+1       1Cu2d+2       1Cu3d-2       1Cu3d-1       1Cu3d0        1Cu3d+1       1Cu3d+2   
    7    1Cu4d-2       1Cu4d-1       1Cu4d0        1Cu4d+1       1Cu4d+2       1Cu5d-2       1Cu5d-1       1Cu5d0        1Cu5d+1       1Cu5d+2   
    8    1Cu6d-2       1Cu6d-1       1Cu6d0        1Cu6d+1       1Cu6d+2       1Cu7d-2       1Cu7d-1       1Cu7d0        1Cu7d+1       1Cu7d+2   
    9    1Cu8d-2       1Cu8d-1       1Cu8d0        1Cu8d+1       1Cu8d+2       1Cu9d-2       1Cu9d-1       1Cu9d0        1Cu9d+1       1Cu9d+2   
   10    1Cu10d-2      1Cu10d-1      1Cu10d0       1Cu10d+1      1Cu10d+2      1Cu11d-2      1Cu11d-1      1Cu11d0       1Cu11d+1      1Cu11d+2  
   11    1Cu1f-3       1Cu1f-2       1Cu1f-1       1Cu1f0        1Cu1f+1       1Cu1f+2       1Cu1f+3       1Cu2f-3       1Cu2f-2       1Cu2f-1   
   12    1Cu2f0        1Cu2f+1       1Cu2f+2       1Cu2f+3       1Cu3f-3       1Cu3f-2       1Cu3f-1       1Cu3f0        1Cu3f+1       1Cu3f+2   
   13    1Cu3f+3       1Cu4f-3       1Cu4f-2       1Cu4f-1       1Cu4f0        1Cu4f+1       1Cu4f+2       1Cu4f+3       1Cu5f-3       1Cu5f-2   
   14    1Cu5f-1       1Cu5f0        1Cu5f+1       1Cu5f+2       1Cu5f+3       1Cu6f-3       1Cu6f-2       1Cu6f-1       1Cu6f0        1Cu6f+1   
   15    1Cu6f+2       1Cu6f+3       1Cu7f-3       1Cu7f-2       1Cu7f-1       1Cu7f0        1Cu7f+1       1Cu7f+2       1Cu7f+3       1Cu8f-3   
   16    1Cu8f-2       1Cu8f-1       1Cu8f0        1Cu8f+1       1Cu8f+2       1Cu8f+3       1Cu9f-3       1Cu9f-2       1Cu9f-1       1Cu9f0    
   17    1Cu9f+1       1Cu9f+2       1Cu9f+3       1Cu1g-4       1Cu1g-3       1Cu1g-2       1Cu1g-1       1Cu1g0        1Cu1g+1       1Cu1g+2   
   18    1Cu1g+3       1Cu1g+4       1Cu2g-4       1Cu2g-3       1Cu2g-2       1Cu2g-1       1Cu2g0        1Cu2g+1       1Cu2g+2       1Cu2g+3   
   19    1Cu2g+4       1Cu3g-4       1Cu3g-3       1Cu3g-2       1Cu3g-1       1Cu3g0        1Cu3g+1       1Cu3g+2       1Cu3g+3       1Cu3g+4   
   20    1Cu4g-4       1Cu4g-3       1Cu4g-2       1Cu4g-1       1Cu4g0        1Cu4g+1       1Cu4g+2       1Cu4g+3       1Cu4g+4       1Cu5g-4   
   21    1Cu5g-3       1Cu5g-2       1Cu5g-1       1Cu5g0        1Cu5g+1       1Cu5g+2       1Cu5g+3       1Cu5g+4       1Cu1h-5       1Cu1h-4   
   22    1Cu1h-3       1Cu1h-2       1Cu1h-1       1Cu1h0        1Cu1h+1       1Cu1h+2       1Cu1h+3       1Cu1h+4       1Cu1h+5       1Cu2h-5   
   23    1Cu2h-4       1Cu2h-3       1Cu2h-2       1Cu2h-1       1Cu2h0        1Cu2h+1       1Cu2h+2       1Cu2h+3       1Cu2h+4       1Cu2h+5   
   24    1Cu3h-5       1Cu3h-4       1Cu3h-3       1Cu3h-2       1Cu3h-1       1Cu3h0        1Cu3h+1       1Cu3h+2       1Cu3h+3       1Cu3h+4   
   25    1Cu3h+5       1Cu1i-6       1Cu1i-5       1Cu1i-4       1Cu1i-3       1Cu1i-2       1Cu1i-1       1Cu1i0        1Cu1i+1       1Cu1i+2   
   26    1Cu1i+3       1Cu1i+4       1Cu1i+5       1Cu1i+6       2Cu1s         2Cu2s         2Cu3s         2Cu4s         2Cu5s         2Cu6s     
   27    2Cu7s         2Cu8s         2Cu9s         2Cu10s        2Cu11s        2Cu12s        2Cu13s        2Cu14s        2Cu15s        2Cu16s    
   28    2Cu1pz        2Cu1py        2Cu1px        2Cu2pz        2Cu2py        2Cu2px        2Cu3pz        2Cu3py        2Cu3px        2Cu4pz    
   29    2Cu4py        2Cu4px        2Cu5pz        2Cu5py        2Cu5px        2Cu6pz        2Cu6py        2Cu6px        2Cu7pz        2Cu7py    
   30    2Cu7px        2Cu8pz        2Cu8py        2Cu8px        2Cu9pz        2Cu9py        2Cu9px        2Cu10pz       2Cu10py       2Cu10px   
   31    2Cu11pz       2Cu11py       2Cu11px       2Cu12pz       2Cu12py       2Cu12px       2Cu13pz       2Cu13py       2Cu13px       2Cu1d-2   
   32    2Cu1d-1       2Cu1d0        2Cu1d+1       2Cu1d+2       2Cu2d-2       2Cu2d-1       2Cu2d0        2Cu2d+1       2Cu2d+2       2Cu3d-2   
   33    2Cu3d-1       2Cu3d0        2Cu3d+1       2Cu3d+2       2Cu4d-2       2Cu4d-1       2Cu4d0        2Cu4d+1       2Cu4d+2       2Cu5d-2   
   34    2Cu5d-1       2Cu5d0        2Cu5d+1       2Cu5d+2       2Cu6d-2       2Cu6d-1       2Cu6d0        2Cu6d+1       2Cu6d+2       2Cu7d-2   
   35    2Cu7d-1       2Cu7d0        2Cu7d+1       2Cu7d+2       2Cu8d-2       2Cu8d-1       2Cu8d0        2Cu8d+1       2Cu8d+2       2Cu9d-2   
   36    2Cu9d-1       2Cu9d0        2Cu9d+1       2Cu9d+2       2Cu10d-2      2Cu10d-1      2Cu10d0       2Cu10d+1      2Cu10d+2      2Cu11d-2  
   37    2Cu11d-1      2Cu11d0       2Cu11d+1      2Cu11d+2      2Cu1f-3       2Cu1f-2       2Cu1f-1       2Cu1f0        2Cu1f+1       2Cu1f+2   
   38    2Cu1f+3       2Cu2f-3       2Cu2f-2       2Cu2f-1       2Cu2f0        2Cu2f+1       2Cu2f+2       2Cu2f+3       2Cu3f-3       2Cu3f-2   
   39    2Cu3f-1       2Cu3f0        2Cu3f+1       2Cu3f+2       2Cu3f+3       2Cu4f-3       2Cu4f-2       2Cu4f-1       2Cu4f0        2Cu4f+1   
   40    2Cu4f+2       2Cu4f+3       2Cu5f-3       2Cu5f-2       2Cu5f-1       2Cu5f0        2Cu5f+1       2Cu5f+2       2Cu5f+3       2Cu6f-3   
   41    2Cu6f-2       2Cu6f-1       2Cu6f0        2Cu6f+1       2Cu6f+2       2Cu6f+3       2Cu7f-3       2Cu7f-2       2Cu7f-1       2Cu7f0    
   42    2Cu7f+1       2Cu7f+2       2Cu7f+3       2Cu8f-3       2Cu8f-2       2Cu8f-1       2Cu8f0        2Cu8f+1       2Cu8f+2       2Cu8f+3   
   43    2Cu9f-3       2Cu9f-2       2Cu9f-1       2Cu9f0        2Cu9f+1       2Cu9f+2       2Cu9f+3       2Cu1g-4       2Cu1g-3       2Cu1g-2   
   44    2Cu1g-1       2Cu1g0        2Cu1g+1       2Cu1g+2       2Cu1g+3       2Cu1g+4       2Cu2g-4       2Cu2g-3       2Cu2g-2       2Cu2g-1   
   45    2Cu2g0        2Cu2g+1       2Cu2g+2       2Cu2g+3       2Cu2g+4       2Cu3g-4       2Cu3g-3       2Cu3g-2       2Cu3g-1       2Cu3g0    
   46    2Cu3g+1       2Cu3g+2       2Cu3g+3       2Cu3g+4       2Cu4g-4       2Cu4g-3       2Cu4g-2       2Cu4g-1       2Cu4g0        2Cu4g+1   
   47    2Cu4g+2       2Cu4g+3       2Cu4g+4       2Cu5g-4       2Cu5g-3       2Cu5g-2       2Cu5g-1       2Cu5g0        2Cu5g+1       2Cu5g+2   
   48    2Cu5g+3       2Cu5g+4       2Cu1h-5       2Cu1h-4       2Cu1h-3       2Cu1h-2       2Cu1h-1       2Cu1h0        2Cu1h+1       2Cu1h+2   
   49    2Cu1h+3       2Cu1h+4       2Cu1h+5       2Cu2h-5       2Cu2h-4       2Cu2h-3       2Cu2h-2       2Cu2h-1       2Cu2h0        2Cu2h+1   
   50    2Cu2h+2       2Cu2h+3       2Cu2h+4       2Cu2h+5       2Cu3h-5       2Cu3h-4       2Cu3h-3       2Cu3h-2       2Cu3h-1       2Cu3h0    
   51    2Cu3h+1       2Cu3h+2       2Cu3h+3       2Cu3h+4       2Cu3h+5       2Cu1i-6       2Cu1i-5       2Cu1i-4       2Cu1i-3       2Cu1i-2   
   52    2Cu1i-1       2Cu1i0        2Cu1i+1       2Cu1i+2       2Cu1i+3       2Cu1i+4       2Cu1i+5       2Cu1i+6       3Cu1s         3Cu2s     
   53    3Cu3s         3Cu4s         3Cu5s         3Cu6s         3Cu7s         3Cu8s         3Cu9s         3Cu10s        3Cu11s        3Cu12s    
   54    3Cu13s        3Cu14s        3Cu15s        3Cu16s        3Cu1pz        3Cu1py        3Cu1px        3Cu2pz        3Cu2py        3Cu2px    
   55    3Cu3pz        3Cu3py        3Cu3px        3Cu4pz        3Cu4py        3Cu4px        3Cu5pz        3Cu5py        3Cu5px        3Cu6pz    
   56    3Cu6py        3Cu6px        3Cu7pz        3Cu7py        3Cu7px        3Cu8pz        3Cu8py        3Cu8px        3Cu9pz        3Cu9py    
   57    3Cu9px        3Cu10pz       3Cu10py       3Cu10px       3Cu11pz       3Cu11py       3Cu11px       3Cu12pz       3Cu12py       3Cu12px   
   58    3Cu13pz       3Cu13py       3Cu13px       3Cu1d-2       3Cu1d-1       3Cu1d0        3Cu1d+1       3Cu1d+2       3Cu2d-2       3Cu2d-1   
   59    3Cu2d0        3Cu2d+1       3Cu2d+2       3Cu3d-2       3Cu3d-1       3Cu3d0        3Cu3d+1       3Cu3d+2       3Cu4d-2       3Cu4d-1   
   60    3Cu4d0        3Cu4d+1       3Cu4d+2       3Cu5d-2       3Cu5d-1       3Cu5d0        3Cu5d+1       3Cu5d+2       3Cu6d-2       3Cu6d-1   
   61    3Cu6d0        3Cu6d+1       3Cu6d+2       3Cu7d-2       3Cu7d-1       3Cu7d0        3Cu7d+1       3Cu7d+2       3Cu8d-2       3Cu8d-1   
   62    3Cu8d0        3Cu8d+1       3Cu8d+2       3Cu9d-2       3Cu9d-1       3Cu9d0        3Cu9d+1       3Cu9d+2       3Cu10d-2      3Cu10d-1  
   63    3Cu10d0       3Cu10d+1      3Cu10d+2      3Cu11d-2      3Cu11d-1      3Cu11d0       3Cu11d+1      3Cu11d+2      3Cu1f-3       3Cu1f-2   
   64    3Cu1f-1       3Cu1f0        3Cu1f+1       3Cu1f+2       3Cu1f+3       3Cu2f-3       3Cu2f-2       3Cu2f-1       3Cu2f0        3Cu2f+1   
   65    3Cu2f+2       3Cu2f+3       3Cu3f-3       3Cu3f-2       3Cu3f-1       3Cu3f0        3Cu3f+1       3Cu3f+2       3Cu3f+3       3Cu4f-3   
   66    3Cu4f-2       3Cu4f-1       3Cu4f0        3Cu4f+1       3Cu4f+2       3Cu4f+3       3Cu5f-3       3Cu5f-2       3Cu5f-1       3Cu5f0    
   67    3Cu5f+1       3Cu5f+2       3Cu5f+3       3Cu6f-3       3Cu6f-2       3Cu6f-1       3Cu6f0        3Cu6f+1       3Cu6f+2       3Cu6f+3   
   68    3Cu7f-3       3Cu7f-2       3Cu7f-1       3Cu7f0        3Cu7f+1       3Cu7f+2       3Cu7f+3       3Cu8f-3       3Cu8f-2       3Cu8f-1   
   69    3Cu8f0        3Cu8f+1       3Cu8f+2       3Cu8f+3       3Cu9f-3       3Cu9f-2       3Cu9f-1       3Cu9f0        3Cu9f+1       3Cu9f+2   
   70    3Cu9f+3       3Cu1g-4       3Cu1g-3       3Cu1g-2       3Cu1g-1       3Cu1g0        3Cu1g+1       3Cu1g+2       3Cu1g+3       3Cu1g+4   
   71    3Cu2g-4       3Cu2g-3       3Cu2g-2       3Cu2g-1       3Cu2g0        3Cu2g+1       3Cu2g+2       3Cu2g+3       3Cu2g+4       3Cu3g-4   
   72    3Cu3g-3       3Cu3g-2       3Cu3g-1       3Cu3g0        3Cu3g+1       3Cu3g+2       3Cu3g+3       3Cu3g+4       3Cu4g-4       3Cu4g-3   
   73    3Cu4g-2       3Cu4g-1       3Cu4g0        3Cu4g+1       3Cu4g+2       3Cu4g+3       3Cu4g+4       3Cu5g-4       3Cu5g-3       3Cu5g-2   
   74    3Cu5g-1       3Cu5g0        3Cu5g+1       3Cu5g+2       3Cu5g+3       3Cu5g+4       3Cu1h-5       3Cu1h-4       3Cu1h-3       3Cu1h-2   
   75    3Cu1h-1       3Cu1h0        3Cu1h+1       3Cu1h+2       3Cu1h+3       3Cu1h+4       3Cu1h+5       3Cu2h-5       3Cu2h-4       3Cu2h-3   
   76    3Cu2h-2       3Cu2h-1       3Cu2h0        3Cu2h+1       3Cu2h+2       3Cu2h+3       3Cu2h+4       3Cu2h+5       3Cu3h-5       3Cu3h-4   
   77    3Cu3h-3       3Cu3h-2       3Cu3h-1       3Cu3h0        3Cu3h+1       3Cu3h+2       3Cu3h+3       3Cu3h+4       3Cu3h+5       3Cu1i-6   
   78    3Cu1i-5       3Cu1i-4       3Cu1i-3       3Cu1i-2       3Cu1i-1       3Cu1i0        3Cu1i+1       3Cu1i+2       3Cu1i+3       3Cu1i+4   
   79    3Cu1i+5       3Cu1i+6       4Cu1s         4Cu2s         4Cu3s         4Cu4s         4Cu5s         4Cu6s         4Cu7s         4Cu8s     
   80    4Cu9s         4Cu10s        4Cu11s        4Cu12s        4Cu13s        4Cu14s        4Cu15s        4Cu16s        4Cu1pz        4Cu1py    
   81    4Cu1px        4Cu2pz        4Cu2py        4Cu2px        4Cu3pz        4Cu3py        4Cu3px        4Cu4pz        4Cu4py        4Cu4px    
   82    4Cu5pz        4Cu5py        4Cu5px        4Cu6pz        4Cu6py        4Cu6px        4Cu7pz        4Cu7py        4Cu7px        4Cu8pz    
   83    4Cu8py        4Cu8px        4Cu9pz        4Cu9py        4Cu9px        4Cu10pz       4Cu10py       4Cu10px       4Cu11pz       4Cu11py   
   84    4Cu11px       4Cu12pz       4Cu12py       4Cu12px       4Cu13pz       4Cu13py       4Cu13px       4Cu1d-2       4Cu1d-1       4Cu1d0    
   85    4Cu1d+1       4Cu1d+2       4Cu2d-2       4Cu2d-1       4Cu2d0        4Cu2d+1       4Cu2d+2       4Cu3d-2       4Cu3d-1       4Cu3d0    
   86    4Cu3d+1       4Cu3d+2       4Cu4d-2       4Cu4d-1       4Cu4d0        4Cu4d+1       4Cu4d+2       4Cu5d-2       4Cu5d-1       4Cu5d0    
   87    4Cu5d+1       4Cu5d+2       4Cu6d-2       4Cu6d-1       4Cu6d0        4Cu6d+1       4Cu6d+2       4Cu7d-2       4Cu7d-1       4Cu7d0    
   88    4Cu7d+1       4Cu7d+2       4Cu8d-2       4Cu8d-1       4Cu8d0        4Cu8d+1       4Cu8d+2       4Cu9d-2       4Cu9d-1       4Cu9d0    
   89    4Cu9d+1       4Cu9d+2       4Cu10d-2      4Cu10d-1      4Cu10d0       4Cu10d+1      4Cu10d+2      4Cu11d-2      4Cu11d-1      4Cu11d0   
   90    4Cu11d+1      4Cu11d+2      4Cu1f-3       4Cu1f-2       4Cu1f-1       4Cu1f0        4Cu1f+1       4Cu1f+2       4Cu1f+3       4Cu2f-3   
   91    4Cu2f-2       4Cu2f-1       4Cu2f0        4Cu2f+1       4Cu2f+2       4Cu2f+3       4Cu3f-3       4Cu3f-2       4Cu3f-1       4Cu3f0    
   92    4Cu3f+1       4Cu3f+2       4Cu3f+3       4Cu4f-3       4Cu4f-2       4Cu4f-1       4Cu4f0        4Cu4f+1       4Cu4f+2       4Cu4f+3   
   93    4Cu5f-3       4Cu5f-2       4Cu5f-1       4Cu5f0        4Cu5f+1       4Cu5f+2       4Cu5f+3       4Cu6f-3       4Cu6f-2       4Cu6f-1   
   94    4Cu6f0        4Cu6f+1       4Cu6f+2       4Cu6f+3       4Cu7f-3       4Cu7f-2       4Cu7f-1       4Cu7f0        4Cu7f+1       4Cu7f+2   
   95    4Cu7f+3       4Cu8f-3       4Cu8f-2       4Cu8f-1       4Cu8f0        4Cu8f+1       4Cu8f+2       4Cu8f+3       4Cu9f-3       4Cu9f-2   
   96    4Cu9f-1       4Cu9f0        4Cu9f+1       4Cu9f+2       4Cu9f+3       4Cu1g-4       4Cu1g-3       4Cu1g-2       4Cu1g-1       4Cu1g0    
   97    4Cu1g+1       4Cu1g+2       4Cu1g+3       4Cu1g+4       4Cu2g-4       4Cu2g-3       4Cu2g-2       4Cu2g-1       4Cu2g0        4Cu2g+1   
   98    4Cu2g+2       4Cu2g+3       4Cu2g+4       4Cu3g-4       4Cu3g-3       4Cu3g-2       4Cu3g-1       4Cu3g0        4Cu3g+1       4Cu3g+2   
   99    4Cu3g+3       4Cu3g+4       4Cu4g-4       4Cu4g-3       4Cu4g-2       4Cu4g-1       4Cu4g0        4Cu4g+1       4Cu4g+2       4Cu4g+3   
  100    4Cu4g+4       4Cu5g-4       4Cu5g-3       4Cu5g-2       4Cu5g-1       4Cu5g0        4Cu5g+1       4Cu5g+2       4Cu5g+3       4Cu5g+4   
  101    4Cu1h-5       4Cu1h-4       4Cu1h-3       4Cu1h-2       4Cu1h-1       4Cu1h0        4Cu1h+1       4Cu1h+2       4Cu1h+3       4Cu1h+4   
  102    4Cu1h+5       4Cu2h-5       4Cu2h-4       4Cu2h-3       4Cu2h-2       4Cu2h-1       4Cu2h0        4Cu2h+1       4Cu2h+2       4Cu2h+3   
  103    4Cu2h+4       4Cu2h+5       4Cu3h-5       4Cu3h-4       4Cu3h-3       4Cu3h-2       4Cu3h-1       4Cu3h0        4Cu3h+1       4Cu3h+2   
  104    4Cu3h+3       4Cu3h+4       4Cu3h+5       4Cu1i-6       4Cu1i-5       4Cu1i-4       4Cu1i-3       4Cu1i-2       4Cu1i-1       4Cu1i0    
  105    4Cu1i+1       4Cu1i+2       4Cu1i+3       4Cu1i+4       4Cu1i+5       4Cu1i+6   
 
 Maximum number of basis functions per shell:   63
 Total number of basis functions:   1056
 
 
 Effective core potentials:
 
   1  Cu mcdhf-ecp-10        
   2  Cu mcdhf-ecp-10        
   3  Cu mcdhf-ecp-10        
   4  Cu mcdhf-ecp-10        
 
 Initializing the SAD routines for the initial guess...
 Checking the files required for the initial guess...
 Density files have not been found for the initial guess.
 Generating SCFDENSITIES.Cu.def2-svp.0
 CPU time [min]:     0.079                   Wall time [min]:     0.172
 
 Character table for point group C1:
 
          E  
    A     1
 
 Number of basis functions per irrep:
    A     124
 
 
 Calculation of overlap integrals...
 CPU time [min]:     0.084                   Wall time [min]:     0.173
 
 Calculation of the square root of the overlap matrix...
 Minimum eigenvalue of the overlap matrix: 0.258902E-01
 CPU time [min]:     0.095                   Wall time [min]:     0.174
 
 Calculation of kinetic energy integrals...
 CPU time [min]:     0.096                   Wall time [min]:     0.174
 Calculation of dipole moment integrals...
 CPU time [min]:     0.097                   Wall time [min]:     0.174
 Calculation of nuclear attraction integrals...
 CPU time [min]:     0.100                   Wall time [min]:     0.174
 Calculation of core potential integrals...
 CPU time [min]:     0.187                   Wall time [min]:     0.205
 
 Calculation of prescreening integrals...
 CPU time [min]:     0.388                   Wall time [min]:     0.214
 
 Calculation of two-center Coulomb integrals...
   1% done.
  13% done.
  24% done.
  37% done.
  50% done.
  64% done.
  84% done.
  98% done.
 100% done.
 CPU time [min]:     0.400                   Wall time [min]:     0.215
 
 Cholesky decomposition of the two-center matrix...
 Reciprocal of the condition number:  0.609650E-05
 CPU time [min]:     0.440                   Wall time [min]:     0.216
 
 
 Running small-basis SCF...

 ************************ 2022-11-12 09:41:43 *************************
 Executing scf...

 @scfsetup: integrals calculated directly
            mrcc/integ direct run
 @scfsetup: calculating on full matrices
            not using symmetry adapted basis
 @scfsetup: diis switched on
 @scfsetup: number of steps to extrapolate from  10
 @scfsetup: tolerance in energy deviation    0.100000E-05
            tolerance in density deviation    0.100000E-06
 @scfsetup: maximum number of iterations:  50
 @scfsetup: restricted closed shell hf calc
 @scfsetup: starting scf from superposition of atomic densities
 @scfsetup: occupation set:
            from initial orbitals
 @scfsetup: Parameter-set for SCF acceleration: difficult
 @scfsetup: diis runs from iteration:   2
 @scfsetup: diis runs to iteration:  50
 @scfsetup: diis runs in every iteration
 @scfsetup: diiswatch is disabled                   
 @scfsetup: diis dtol criteria to switch on:      0.0000E+00
           (or the iteration number below is reached)
 @scfsetup: damping is turned off.
 @scfsetup: dynamic level shifting
            tolarance in HOMO-LUMO gap:  0.200
            tolarance in density deviation:     0.0000E+00
            iteration step criteria to turn level shifting off: 8
 Allocation of 150.0 Gbytes of memory...
 ======================================================================
 ITERATION STEP   1
 CPU time [min]:     0.024                   Wall time [min]:     0.006
 

 SCF control                  : initial
 Damping factor/level shift   : 0.000/0.200
 DIIS [start/end/frequency]   :   2 / 50 /  1

 Constructing Fock-matrix...
 
 Pipek-Mezey localization...
 Step  Convergence
   1  27.354340111989
   2   9.523463085068
   3   2.369990512470
   4   0.289199173123
   5   0.002583875241
   6   0.000003338299
   7   0.000000001428
 CPU time [min]:     0.048                   Wall time [min]:     0.007
 
 Constructing local fitting domains...
 Maximum number of atoms in fitting domains:    4
 Average number of atoms in fitting domains:    4.0
 
 First step of Coulomb + first step of exchange...
 Exchange contribution is evaluated for MOs 1 to 38.
   1% done.
  13% done.
  25% done.
  38% done.
  56% done.
  75% done.
  89% done.
 100% done.
 CPU time [min]:     0.147                   Wall time [min]:     0.012
 
 Fitting and assembly step of exchange...
 CPU time [min]:     0.155                   Wall time [min]:     0.012
 
 Second step of Coulomb...
   1% done.
  13% done.
  25% done.
  38% done.
  56% done.
  75% done.
  89% done.
 100% done.
 CPU time [min]:     0.189                   Wall time [min]:     0.013
 
 Gradient norm:      3.4675E+00
 RMS of [F,P]:                                         0.07206484385319
 RMS of difference density:                            0.42999976427087
 Gap [au]:  0.02059929
 ALPHA OCC:  38
 BETA  OCC:  38
 
 ***HARTREE-FOCK ENERGY IN STEP   1 IS       -768.7347272249580783 [AU]
 ======================================================================
 ITERATION STEP   2
 CPU time [min]:     0.200                   Wall time [min]:     0.014
 

 SCF control                  : diis
 Damping factor/level shift   : 0.000/0.200
 DIIS [start/end/frequency]   :   2 / 50 /  1

 Constructing Fock-matrix...
 Inverse square root: The matrix is not positive definite!
 
 Pipek-Mezey localization...
 Step  Convergence
   1  15.033581766266
   2   7.855640068725
   3   2.003790191102
   4   0.104155759037
   5   0.005570179122
   6   0.000633553661
   7   0.000271986326
   8   0.000065987551
   9   0.000030004817
  10   0.000010520540
  11   0.000004546630
  12   0.000001786455
  13   0.000000749400
 CPU time [min]:     0.224                   Wall time [min]:     0.015
 
 Constructing local fitting domains...
 Maximum number of atoms in fitting domains:    4
 Average number of atoms in fitting domains:    4.0
 
 First step of Coulomb + first step of exchange...
 Exchange contribution is evaluated for MOs 1 to 38.
   1% done.
  13% done.
  25% done.
  38% done.
  56% done.
  75% done.
  89% done.
 100% done.
 CPU time [min]:     0.318                   Wall time [min]:     0.019
 
 Fitting and assembly step of exchange...
 CPU time [min]:     0.324                   Wall time [min]:     0.019
 
 Second step of Coulomb...
   1% done.
  13% done.
  25% done.
  38% done.
  56% done.
  75% done.
  89% done.
 100% done.
 CPU time [min]:     0.358                   Wall time [min]:     0.021
 
 Gradient norm:      5.1811E+00
 DIIS is running in this iteration step.
 RMS of [F,P]:                                         0.15809467888483
 RMS of difference density:                            0.42611530311223
 Gap [au]:  0.00357530
 ALPHA OCC:  38
 BETA  OCC:  38
 
 ***HARTREE-FOCK ENERGY IN STEP   2 IS       -728.2101300022613941 [AU]
 
 Step comparison  Energy Drift [au]  DIIS error drift  Gradient drift
        1           -4.0525E+01        -8.6030E-02      -1.7136E+00
        2            7.2821E+02         1.0000E-07      -1.7136E+00
 Warning! The energy goes uphill (with respect to previous step).
 Warning! The gradient goes uphill (with respect to previous step).
 Warning! The gradient goes uphill (with respect to step   1 ).
 ======================================================================
 ITERATION STEP   3
 CPU time [min]:     0.365                   Wall time [min]:     0.021
 

 SCF control                  : diis
 Damping factor/level shift   : 0.000/0.200
 DIIS [start/end/frequency]   :   2 / 50 /  1

 Constructing Fock-matrix...
 Inverse square root: The matrix is not positive definite!
 
 Pipek-Mezey localization...
 Step  Convergence
   1  16.554283781999
   2   7.061363386632
   3   0.661963222335
   4   0.113187413627
   5   0.000428226635
   6   0.000000760451
 CPU time [min]:     0.385                   Wall time [min]:     0.022
 
 Constructing local fitting domains...
 Local fitting domains are unchanged.
 
 First step of Coulomb + first step of exchange...
 Exchange contribution is evaluated for MOs 1 to 38.
   1% done.
  13% done.
  25% done.
  38% done.
  56% done.
  75% done.
  89% done.
 100% done.
 CPU time [min]:     0.475                   Wall time [min]:     0.026
 
 Fitting and assembly step of exchange...
 CPU time [min]:     0.482                   Wall time [min]:     0.026
 
 Second step of Coulomb...
   1% done.
  13% done.
  25% done.
  38% done.
  56% done.
  75% done.
  89% done.
 100% done.
 CPU time [min]:     0.515                   Wall time [min]:     0.027
 
 Gradient norm:      4.1561E+00
 DIIS is running in this iteration step.
 RMS of [F,P]:                                         0.09606260773576
 RMS of difference density:                            0.05042397641376
 Gap [au]:  0.10763906
 ALPHA OCC:  38
 BETA  OCC:  38
 
 ***HARTREE-FOCK ENERGY IN STEP   3 IS       -763.7306828414102711 [AU]
 
 Step comparison  Energy Drift [au]  DIIS error drift  Gradient drift
        2            3.5521E+01         6.2032E-02       1.0251E+00
 Warning! The gradient goes uphill (with respect to step   1 ).
 ======================================================================
 ITERATION STEP   4
 CPU time [min]:     0.525                   Wall time [min]:     0.028
 

 SCF control                  : diis
 Damping factor/level shift   : 0.000/0.200
 DIIS [start/end/frequency]   :   2 / 50 /  1

 Constructing Fock-matrix...
 Inverse square root: The matrix is not positive definite!
 
 Pipek-Mezey localization...
 Step  Convergence
   1  17.915651420113
   2   3.658263796362
   3   0.638328613108
   4   0.003497106242
   5   0.000000068229
 CPU time [min]:     0.544                   Wall time [min]:     0.029
 
 Constructing local fitting domains...
 Local fitting domains are unchanged.
 
 First step of Coulomb + first step of exchange...
 Exchange contribution is evaluated for MOs 1 to 38.
   1% done.
  13% done.
  25% done.
  38% done.
  56% done.
  75% done.
  89% done.
 100% done.
 CPU time [min]:     0.638                   Wall time [min]:     0.033
 
 Fitting and assembly step of exchange...
 CPU time [min]:     0.644                   Wall time [min]:     0.033
 
 Second step of Coulomb...
   1% done.
  13% done.
  25% done.
  38% done.
  56% done.
  75% done.
  89% done.
 100% done.
 CPU time [min]:     0.677                   Wall time [min]:     0.034
 
 Gradient norm:      2.0245E+00
 DIIS is running in this iteration step.
 RMS of [F,P]:                                         0.04202734700554
 RMS of difference density:                            0.01868821283852
 Gap [au]:  0.24294176
 ALPHA OCC:  38
 BETA  OCC:  38
 
 ***HARTREE-FOCK ENERGY IN STEP   4 IS       -774.6298432916942147 [AU]
 
 Step comparison  Energy Drift [au]  DIIS error drift  Gradient drift
        3            1.0899E+01         5.4035E-02       2.1316E+00
 ======================================================================
 ITERATION STEP   5
 CPU time [min]:     0.686                   Wall time [min]:     0.035
 

 SCF control                  : diis
 Damping factor/level shift   : 0.000/0.000
 DIIS [start/end/frequency]   :   2 / 50 /  1

 Constructing Fock-matrix...
 
 Pipek-Mezey localization...
 Step  Convergence
   1  10.214128794357
   2   3.953020749561
   3   1.196253744549
   4   0.529853544349
   5   0.007539308739
   6   0.000000176826
 CPU time [min]:     0.705                   Wall time [min]:     0.036
 
 Constructing local fitting domains...
 Local fitting domains are unchanged.
 
 First step of Coulomb + first step of exchange...
 Exchange contribution is evaluated for MOs 1 to 38.
   1% done.
  13% done.
  25% done.
  38% done.
  56% done.
  75% done.
  89% done.
 100% done.
 CPU time [min]:     0.794                   Wall time [min]:     0.039
 
 Fitting and assembly step of exchange...
 CPU time [min]:     0.800                   Wall time [min]:     0.040
 
 Second step of Coulomb...
   1% done.
  13% done.
  25% done.
  38% done.
  56% done.
  75% done.
  89% done.
 100% done.
 CPU time [min]:     0.833                   Wall time [min]:     0.041
 
 Gradient norm:      6.6618E-01
 DIIS is running in this iteration step.
 RMS of [F,P]:                                         0.01356871010076
 RMS of difference density:                            0.02135589590405
 Gap [au]:  0.10998718
 ALPHA OCC:  38
 BETA  OCC:  38
 
 ***HARTREE-FOCK ENERGY IN STEP   5 IS       -776.7112057891781660 [AU]
 
 Step comparison  Energy Drift [au]  DIIS error drift  Gradient drift
        4            2.0814E+00         2.8459E-02       1.3583E+00
 ======================================================================
 ITERATION STEP   6
 CPU time [min]:     0.841                   Wall time [min]:     0.041
 

 SCF control                  : diis
 Damping factor/level shift   : 0.000/0.200
 DIIS [start/end/frequency]   :   2 / 50 /  1

 Constructing Fock-matrix...
 
 Pipek-Mezey localization...
 Step  Convergence
   1   7.473100998876
   2   5.722640992554
   3   1.021505002852
   4   0.019050699146
   5   0.000002317656
   6   0.000000016219
 CPU time [min]:     0.862                   Wall time [min]:     0.043
 
 Constructing local fitting domains...
 Local fitting domains are unchanged.
 
 First step of Coulomb + first step of exchange...
 Exchange contribution is evaluated for MOs 1 to 38.
   1% done.
  13% done.
  25% done.
  38% done.
  56% done.
  75% done.
  89% done.
 100% done.
 CPU time [min]:     0.954                   Wall time [min]:     0.046
 
 Fitting and assembly step of exchange...
 CPU time [min]:     0.960                   Wall time [min]:     0.047
 
 Second step of Coulomb...
   1% done.
  13% done.
  25% done.
  38% done.
  56% done.
  75% done.
  89% done.
 100% done.
 CPU time [min]:     0.994                   Wall time [min]:     0.048
 
 Gradient norm:      2.8834E-01
 DIIS is running in this iteration step.
 RMS of [F,P]:                                         0.00994445914949
 RMS of difference density:                            0.00367364086072
 Gap [au]:  0.13487901
 ALPHA OCC:  38
 BETA  OCC:  38
 
 ***HARTREE-FOCK ENERGY IN STEP   6 IS       -776.9528872773885269 [AU]
 
 Step comparison  Energy Drift [au]  DIIS error drift  Gradient drift
        5            2.4168E-01         3.6243E-03       3.7784E-01
 ======================================================================
 ITERATION STEP   7
 CPU time [min]:     1.003                   Wall time [min]:     0.049
 

 SCF control                  : diis
 Damping factor/level shift   : 0.000/0.200
 DIIS [start/end/frequency]   :   2 / 50 /  1

 Constructing Fock-matrix...
 
 Pipek-Mezey localization...
 Step  Convergence
   1  14.257693675280
   2   4.118660138015
   3   1.110343429306
   4   0.141697862487
   5   0.000541433449
   6   0.000005441964
   7   0.000000043140
 CPU time [min]:     1.024                   Wall time [min]:     0.050
 
 Constructing local fitting domains...
 Local fitting domains are unchanged.
 
 First step of Coulomb + first step of exchange...
 Exchange contribution is evaluated for MOs 1 to 38.
   1% done.
  13% done.
  25% done.
  38% done.
  56% done.
  75% done.
  89% done.
 100% done.
 CPU time [min]:     1.115                   Wall time [min]:     0.053
 
 Fitting and assembly step of exchange...
 CPU time [min]:     1.122                   Wall time [min]:     0.054
 
 Second step of Coulomb...
   1% done.
  13% done.
  25% done.
  38% done.
  56% done.
  75% done.
  89% done.
 100% done.
 CPU time [min]:     1.155                   Wall time [min]:     0.055
 
 Gradient norm:      5.3649E-02
 DIIS is running in this iteration step.
 RMS of [F,P]:                                         0.00133328904787
 RMS of difference density:                            0.00180854619110
 Gap [au]:  0.17664377
 ALPHA OCC:  38
 BETA  OCC:  38
 
 ***HARTREE-FOCK ENERGY IN STEP   7 IS       -777.0423168935217291 [AU]
 
 Step comparison  Energy Drift [au]  DIIS error drift  Gradient drift
        6            8.9430E-02         8.6112E-03       2.3469E-01
 ======================================================================
 ITERATION STEP   8
 CPU time [min]:     1.162                   Wall time [min]:     0.055
 

 SCF control                  : diis
 Damping factor/level shift   : 0.000/0.200
 DIIS [start/end/frequency]   :   2 / 50 /  1

 Constructing Fock-matrix...
 
 Pipek-Mezey localization...
 Step  Convergence
   1  15.752852469439
   2   5.199817223509
   3   2.951797747269
   4   0.406194638848
   5   0.004636433342
   6   0.000035973755
   7   0.000001182319
   8   0.000000060538
   9   0.000000003222
 CPU time [min]:     1.183                   Wall time [min]:     0.056
 
 Constructing local fitting domains...
 Local fitting domains are unchanged.
 
 First step of Coulomb + first step of exchange...
 Exchange contribution is evaluated for MOs 1 to 38.
   1% done.
  13% done.
  25% done.
  38% done.
  56% done.
  75% done.
  89% done.
 100% done.
 CPU time [min]:     1.282                   Wall time [min]:     0.061
 
 Fitting and assembly step of exchange...
 CPU time [min]:     1.288                   Wall time [min]:     0.061
 
 Second step of Coulomb...
   1% done.
  13% done.
  25% done.
  38% done.
  56% done.
  75% done.
  89% done.
 100% done.
 CPU time [min]:     1.322                   Wall time [min]:     0.062
 
 Gradient norm:      2.7666E-02
 DIIS is running in this iteration step.
 RMS of [F,P]:                                         0.00052888321336
 RMS of difference density:                            0.00132451656552
 Gap [au]:  0.18430052
 ALPHA OCC:  38
 BETA  OCC:  38
 
 ***HARTREE-FOCK ENERGY IN STEP   8 IS       -777.0480845886008865 [AU]
 
 Step comparison  Energy Drift [au]  DIIS error drift  Gradient drift
        7            5.7677E-03         8.0441E-04       2.5983E-02
 ======================================================================
 ITERATION STEP   9
 CPU time [min]:     1.334                   Wall time [min]:     0.063
 

 SCF control                  : diis
 Damping factor/level shift   : 0.000/0.000
 DIIS [start/end/frequency]   :   2 / 50 /  1

 Constructing Fock-matrix...
 
 Pipek-Mezey localization...
 Step  Convergence
   1  13.468340050391
   2   6.039868332871
   3   4.993661814360
   4   1.188291732057
   5   0.219021441154
   6   0.002038256842
   7   0.000006455681
   8   0.000000192345
   9   0.000000011696
  10   0.000000000690
 CPU time [min]:     1.357                   Wall time [min]:     0.064
 
 Constructing local fitting domains...
 Local fitting domains are unchanged.
 
 First step of Coulomb + first step of exchange...
 Exchange contribution is evaluated for MOs 1 to 38.
   1% done.
  13% done.
  25% done.
  38% done.
  56% done.
  75% done.
  89% done.
 100% done.
 CPU time [min]:     1.449                   Wall time [min]:     0.068
 
 Fitting and assembly step of exchange...
 CPU time [min]:     1.456                   Wall time [min]:     0.068
 
 Second step of Coulomb...
   1% done.
  13% done.
  25% done.
  38% done.
  56% done.
  75% done.
  89% done.
 100% done.
 CPU time [min]:     1.489                   Wall time [min]:     0.070
 
 Gradient norm:      1.6601E-02
 DIIS is running in this iteration step.
 RMS of [F,P]:                                         0.00038199859770
 RMS of difference density:                            0.00132342042721
 Gap [au]:  0.18922836
 ALPHA OCC:  38
 BETA  OCC:  38
 
 ***HARTREE-FOCK ENERGY IN STEP   9 IS       -777.0501766086099451 [AU]
 
 Step comparison  Energy Drift [au]  DIIS error drift  Gradient drift
        8            2.0920E-03         1.4688E-04       1.1065E-02
 ======================================================================
 ITERATION STEP  10
 CPU time [min]:     1.506                   Wall time [min]:     0.070
 

 SCF control                  : diis
 Damping factor/level shift   : 0.000/0.000
 DIIS [start/end/frequency]   :   2 / 50 /  1

 Constructing Fock-matrix...
 
 Pipek-Mezey localization...
 Step  Convergence
   1  19.264097124541
   2   8.199772263895
   3   7.031301053794
   4   3.460971729641
   5   0.664366755787
   6   0.055704752323
   7   0.001849519381
   8   0.000072943579
   9   0.000004733226
  10   0.000000340199
  11   0.000000025683
  12   0.000000002078
  13   0.000000000183
  14   0.000000000017
 CPU time [min]:     1.531                   Wall time [min]:     0.072
 
 Constructing local fitting domains...
 Local fitting domains are unchanged.
 
 First step of Coulomb + first step of exchange...
 Exchange contribution is evaluated for MOs 1 to 38.
   1% done.
  13% done.
  25% done.
  38% done.
  56% done.
  75% done.
  89% done.
 100% done.
 CPU time [min]:     1.621                   Wall time [min]:     0.075
 
 Fitting and assembly step of exchange...
 CPU time [min]:     1.627                   Wall time [min]:     0.076
 
 Second step of Coulomb...
   1% done.
  13% done.
  25% done.
  38% done.
  56% done.
  75% done.
  89% done.
 100% done.
 CPU time [min]:     1.660                   Wall time [min]:     0.077
 
 Gradient norm:      8.8679E-03
 DIIS is running in this iteration step.
 RMS of [F,P]:                                         0.00019798191296
 RMS of difference density:                            0.00064005097034
 Gap [au]:  0.18818949
 ALPHA OCC:  38
 BETA  OCC:  38
 
 ***HARTREE-FOCK ENERGY IN STEP  10 IS       -777.0512815783254155 [AU]
 
 Step comparison  Energy Drift [au]  DIIS error drift  Gradient drift
        9            1.1050E-03         1.8402E-04       7.7335E-03
 ======================================================================
 ITERATION STEP  11
 CPU time [min]:     1.671                   Wall time [min]:     0.078
 

 SCF control                  : diis
 Damping factor/level shift   : 0.000/0.000
 DIIS [start/end/frequency]   :   2 / 50 /  1

 Constructing Fock-matrix...
 
 Pipek-Mezey localization...
 Step  Convergence
   1  18.396095661466
   2   9.165966084023
   3  10.871893381195
   4   6.495834167288
   5   1.578662752449
   6   0.512951930534
   7   0.017502625973
   8   0.000091189767
   9   0.000002506430
  10   0.000000468104
  11   0.000000055051
  12   0.000000008168
  13   0.000000001074
  14   0.000000000150
  15   0.000000000020
  16   0.000000000003
 CPU time [min]:     1.701                   Wall time [min]:     0.079
 
 Constructing local fitting domains...
 Local fitting domains are unchanged.
 
 First step of Coulomb + first step of exchange...
 Exchange contribution is evaluated for MOs 1 to 38.
   1% done.
  13% done.
  25% done.
  38% done.
  56% done.
  75% done.
  89% done.
 100% done.
 CPU time [min]:     1.791                   Wall time [min]:     0.083
 
 Fitting and assembly step of exchange...
 CPU time [min]:     1.798                   Wall time [min]:     0.083
 
 Second step of Coulomb...
   1% done.
  13% done.
  25% done.
  38% done.
  56% done.
  75% done.
  89% done.
 100% done.
 CPU time [min]:     1.831                   Wall time [min]:     0.084
 
 Gradient norm:      2.8986E-03
 DIIS is running in this iteration step.
 RMS of [F,P]:                                         0.00006507531696
 RMS of difference density:                            0.00031957629767
 Gap [au]:  0.18895611
 ALPHA OCC:  38
 BETA  OCC:  38
 
 ***HARTREE-FOCK ENERGY IN STEP  11 IS       -777.0515002717875177 [AU]
 
 Step comparison  Energy Drift [au]  DIIS error drift  Gradient drift
       10            2.1869E-04         1.3291E-04       5.9693E-03
 ======================================================================
 ITERATION STEP  12
 CPU time [min]:     1.840                   Wall time [min]:     0.085
 

 SCF control                  : diis
 Damping factor/level shift   : 0.000/0.000
 DIIS [start/end/frequency]   :   2 / 50 /  1

 Constructing Fock-matrix...
 
 Pipek-Mezey localization...
 Step  Convergence
   1  17.474418153819
   2   7.067410588145
   3  10.154109958718
   4   3.192509653223
   5   0.924572683637
   6   0.020301732673
   7   0.000618559457
   8   0.000030251142
   9   0.000008017302
  10   0.000000674933
  11   0.000000127077
  12   0.000000013789
  13   0.000000002171
  14   0.000000000266
  15   0.000000000039
  16   0.000000000005
  17   0.000000000001
 CPU time [min]:     1.867                   Wall time [min]:     0.086
 
 Constructing local fitting domains...
 Local fitting domains are unchanged.
 
 First step of Coulomb + first step of exchange...
 Exchange contribution is evaluated for MOs 1 to 38.
   1% done.
  13% done.
  25% done.
  38% done.
  56% done.
  75% done.
  89% done.
 100% done.
 CPU time [min]:     1.966                   Wall time [min]:     0.090
 
 Fitting and assembly step of exchange...
 CPU time [min]:     1.972                   Wall time [min]:     0.091
 
 Second step of Coulomb...
   1% done.
  13% done.
  25% done.
  38% done.
  56% done.
  75% done.
  89% done.
 100% done.
 CPU time [min]:     2.006                   Wall time [min]:     0.092
 
 Gradient norm:      8.6570E-04
 DIIS is running in this iteration step.
 RMS of [F,P]:                                         0.00001850424892
 RMS of difference density:                            0.00010378701137
 Gap [au]:  0.18929784
 ALPHA OCC:  38
 BETA  OCC:  38
 
 ***HARTREE-FOCK ENERGY IN STEP  12 IS       -777.0515390068540000 [AU]
 
 Step comparison  Energy Drift [au]  DIIS error drift  Gradient drift
       11            3.8735E-05         4.6571E-05       2.0329E-03
 ======================================================================
 ITERATION STEP  13
 CPU time [min]:     2.016                   Wall time [min]:     0.093
 

 SCF control                  : diis
 Damping factor/level shift   : 0.000/0.000
 DIIS [start/end/frequency]   :   2 / 50 /  1

 Constructing Fock-matrix...
 
 Pipek-Mezey localization...
 Step  Convergence
   1  15.158379091982
   2   7.747503815446
   3   8.880771228649
   4   5.253802514966
   5   0.773089220571
   6   0.021488492935
   7   0.000092049474
   8   0.000002547516
   9   0.000000141279
  10   0.000000008871
  11   0.000000000566
  12   0.000000000036
  13   0.000000000002
  14   0.000000000000
 CPU time [min]:     2.039                   Wall time [min]:     0.094
 
 Constructing local fitting domains...
 Local fitting domains are unchanged.
 
 First step of Coulomb + first step of exchange...
 Exchange contribution is evaluated for MOs 1 to 38.
   1% done.
  13% done.
  25% done.
  38% done.
  56% done.
  75% done.
  89% done.
 100% done.
 CPU time [min]:     2.133                   Wall time [min]:     0.098
 
 Fitting and assembly step of exchange...
 CPU time [min]:     2.139                   Wall time [min]:     0.098
 
 Second step of Coulomb...
   1% done.
  13% done.
  25% done.
  38% done.
  56% done.
  75% done.
  89% done.
 100% done.
 CPU time [min]:     2.172                   Wall time [min]:     0.099
 
 Gradient norm:      2.4568E-04
 DIIS is running in this iteration step.
 RMS of [F,P]:                                         0.00000508657417
 RMS of difference density:                            0.00001578816586
 Gap [au]:  0.18926963
 ALPHA OCC:  38
 BETA  OCC:  38
 
 ***HARTREE-FOCK ENERGY IN STEP  13 IS       -777.0515433339201081 [AU]
 
 Step comparison  Energy Drift [au]  DIIS error drift  Gradient drift
       12            4.3271E-06         1.3418E-05       6.2001E-04
 ======================================================================
 ITERATION STEP  14
 CPU time [min]:     2.183                   Wall time [min]:     0.100
 

 SCF control                  : diis
 Damping factor/level shift   : 0.000/0.000
 DIIS [start/end/frequency]   :   2 / 50 /  1

 Constructing Fock-matrix...
 
 Pipek-Mezey localization...
 Step  Convergence
   1  19.959442003168
   2   8.256553449695
   3   9.581985170874
   4   2.608956990119
   5   1.567145351754
   6   0.040261292749
   7   0.052720100443
   8   0.000035377318
   9   0.000004391628
  10   0.000000529438
  11   0.000000063848
  12   0.000000007665
  13   0.000000000920
  14   0.000000000110
  15   0.000000000013
  16   0.000000000002
  17   0.000000000000
 CPU time [min]:     2.209                   Wall time [min]:     0.101
 
 Constructing local fitting domains...
 Local fitting domains are unchanged.
 
 First step of Coulomb + first step of exchange...
 Exchange contribution is evaluated for MOs 1 to 38.
   1% done.
  13% done.
  25% done.
  38% done.
  56% done.
  75% done.
  89% done.
 100% done.
 CPU time [min]:     2.299                   Wall time [min]:     0.105
 
 Fitting and assembly step of exchange...
 CPU time [min]:     2.305                   Wall time [min]:     0.105
 
 Second step of Coulomb...
   1% done.
  13% done.
  25% done.
  38% done.
  56% done.
  75% done.
  89% done.
 100% done.
 CPU time [min]:     2.338                   Wall time [min]:     0.106
 
 Gradient norm:      9.1280E-05
 DIIS is running in this iteration step.
 RMS of [F,P]:                                         0.00000168186473
 RMS of difference density:                            0.00000463207851
 Gap [au]:  0.18927418
 ALPHA OCC:  38
 BETA  OCC:  38
 
 ***HARTREE-FOCK ENERGY IN STEP  14 IS       -777.0515435740881003 [AU]
 
 Step comparison  Energy Drift [au]  DIIS error drift  Gradient drift
       13            2.4017E-07         3.4047E-06       1.5440E-04
 ======================================================================
 ITERATION STEP  15
 CPU time [min]:     2.347                   Wall time [min]:     0.107
 

 SCF control                  : diis
 Damping factor/level shift   : 0.000/0.000
 DIIS [start/end/frequency]   :   2 / 50 /  1

 Constructing Fock-matrix...
 
 Pipek-Mezey localization...
 Step  Convergence
   1  15.145659851318
   2   6.213365648699
   3   7.763703870610
   4   3.121241823788
   5   0.842586653509
   6   0.033614264676
   7   0.000071970258
   8   0.000005732406
   9   0.000000466936
  10   0.000000047299
  11   0.000000004393
  12   0.000000000428
  13   0.000000000041
  14   0.000000000004
  15   0.000000000000
 CPU time [min]:     2.370                   Wall time [min]:     0.108
 
 Constructing local fitting domains...
 Local fitting domains are unchanged.
 
 First step of Coulomb + first step of exchange...
 Exchange contribution is evaluated for MOs 1 to 38.
   1% done.
  13% done.
  25% done.
  38% done.
  56% done.
  75% done.
  89% done.
 100% done.
 CPU time [min]:     2.463                   Wall time [min]:     0.112
 
 Fitting and assembly step of exchange...
 CPU time [min]:     2.469                   Wall time [min]:     0.112
 
 Second step of Coulomb...
   1% done.
  13% done.
  25% done.
  38% done.
  56% done.
  75% done.
  89% done.
 100% done.
 CPU time [min]:     2.503                   Wall time [min]:     0.114
 
 Gradient norm:      4.1099E-05
 DIIS is running in this iteration step.
 RMS of [F,P]:                                         0.00000078548628
 RMS of difference density:                            0.00000169543477
 Gap [au]:  0.18926876
 ALPHA OCC:  38
 BETA  OCC:  38
 
 ***HARTREE-FOCK ENERGY IN STEP  15 IS       -777.0515436007949575 [AU]
 
 Step comparison  Energy Drift [au]  DIIS error drift  Gradient drift
       14            2.6707E-08         8.9638E-07       5.0180E-05
 ======================================================================
 ITERATION STEP  16
 CPU time [min]:     2.515                   Wall time [min]:     0.114
 

 SCF control                  : diis
 Damping factor/level shift   : 0.000/0.000
 DIIS [start/end/frequency]   :   2 / 50 /  1

 Constructing Fock-matrix...
 
 Pipek-Mezey localization...
 Step  Convergence
   1  16.052098672486
   2   5.889179169120
   3   7.525075908026
   4   3.762922850821
   5   0.709125910808
   6   0.014010248106
   7   0.000041236207
   8   0.000002878550
   9   0.000000051326
  10   0.000000006681
  11   0.000000000463
  12   0.000000000052
  13   0.000000000006
  14   0.000000000001
 CPU time [min]:     2.538                   Wall time [min]:     0.115
 
 Constructing local fitting domains...
 Local fitting domains are unchanged.
 
 First step of Coulomb + first step of exchange...
 Exchange contribution is evaluated for MOs 1 to 38.
   1% done.
  13% done.
  25% done.
  38% done.
  56% done.
  75% done.
  89% done.
 100% done.
 CPU time [min]:     2.630                   Wall time [min]:     0.119
 
 Fitting and assembly step of exchange...
 CPU time [min]:     2.636                   Wall time [min]:     0.119
 
 Second step of Coulomb...
   1% done.
  13% done.
  25% done.
  38% done.
  56% done.
  75% done.
  89% done.
 100% done.
 CPU time [min]:     2.670                   Wall time [min]:     0.121
 
 Gradient norm:      1.9653E-05
 DIIS is running in this iteration step.
 RMS of [F,P]:                                         0.00000048378914
 RMS of difference density:                            0.00000086620215
 Gap [au]:  0.18926809
 ALPHA OCC:  38
 BETA  OCC:  38
 
 ***HARTREE-FOCK ENERGY IN STEP  16 IS       -777.0515436052241967 [AU]
 
 Step comparison  Energy Drift [au]  DIIS error drift  Gradient drift
       15            4.4292E-09         3.0170E-07       2.1446E-05
 ======================================================================
 ITERATION STEP  17
 CPU time [min]:     2.681                   Wall time [min]:     0.121
 

 SCF control                  : diis
 Damping factor/level shift   : 0.000/0.000
 DIIS [start/end/frequency]   :   2 / 50 /  1

 Constructing Fock-matrix...
 
 Pipek-Mezey localization...
 Step  Convergence
   1  17.418271926725
   2   9.141478051459
   3   9.765758080630
   4   5.564160402045
   5   0.476672388182
   6   0.022241190081
   7   0.001173407695
   8   0.000084387956
   9   0.000009625147
  10   0.000001246610
  11   0.000000101391
  12   0.000000009657
  13   0.000000001345
  14   0.000000000107
  15   0.000000000010
  16   0.000000000001
  17   0.000000000000
 CPU time [min]:     2.705                   Wall time [min]:     0.123
 
 Constructing local fitting domains...
 Local fitting domains are unchanged.
 
 First step of Coulomb + first step of exchange...
 Exchange contribution is evaluated for MOs 1 to 38.
   1% done.
  13% done.
  25% done.
  38% done.
  56% done.
  75% done.
  89% done.
 100% done.
 CPU time [min]:     2.798                   Wall time [min]:     0.126
 
 Fitting and assembly step of exchange...
 CPU time [min]:     2.805                   Wall time [min]:     0.127
 
 Second step of Coulomb...
   1% done.
  13% done.
  25% done.
  38% done.
  56% done.
  75% done.
  89% done.
 100% done.
 CPU time [min]:     2.838                   Wall time [min]:     0.128
 
 Gradient norm:      9.0893E-06
 DIIS is running in this iteration step.
 RMS of [F,P]:                                         0.00000024706314
 RMS of difference density:                            0.00000047971194
 Gap [au]:  0.18926717
 ALPHA OCC:  38
 BETA  OCC:  38
 
 ***HARTREE-FOCK ENERGY IN STEP  17 IS       -777.0515436061655237 [AU]
 
 Step comparison  Energy Drift [au]  DIIS error drift  Gradient drift
       16            9.4133E-10         2.3673E-07       1.0564E-05
 ======================================================================
 ITERATION STEP  18
 CPU time [min]:     2.845                   Wall time [min]:     0.128
 

 SCF control                  : diis
 Damping factor/level shift   : 0.000/0.000
 DIIS [start/end/frequency]   :   2 / 50 /  1

 Constructing Fock-matrix...
 
 Pipek-Mezey localization...
 Step  Convergence
   1  15.735528215476
   2   8.878407171629
   3   7.908721765269
   4   3.273176951038
   5   0.175845434772
   6   0.010490680691
   7   0.000688173662
   8   0.000133030253
   9   0.000018370856
  10   0.000003994639
  11   0.000000609368
  12   0.000000121905
  13   0.000000020496
  14   0.000000003835
  15   0.000000000680
  16   0.000000000122
  17   0.000000000022
  18   0.000000000004
  19   0.000000000001
 CPU time [min]:     2.869                   Wall time [min]:     0.130
 
 Constructing local fitting domains...
 Local fitting domains are unchanged.
 
 First step of Coulomb + first step of exchange...
 Exchange contribution is evaluated for MOs 1 to 38.
   1% done.
  13% done.
  25% done.
  38% done.
  56% done.
  75% done.
  89% done.
 100% done.
 CPU time [min]:     2.963                   Wall time [min]:     0.134
 
 Fitting and assembly step of exchange...
 CPU time [min]:     2.969                   Wall time [min]:     0.134
 
 Second step of Coulomb...
   1% done.
  13% done.
  25% done.
  38% done.
  56% done.
  75% done.
  89% done.
 100% done.
 CPU time [min]:     3.003                   Wall time [min]:     0.135
 
 Gradient norm:      4.1347E-06
 DIIS is running in this iteration step.
 RMS of [F,P]:                                         0.00000008135100
 RMS of difference density:                            0.00000026951975
 Gap [au]:  0.18926678
 ALPHA OCC:  38
 BETA  OCC:  38
 
 ***HARTREE-FOCK ENERGY IN STEP  18 IS       -777.0515436064210917 [AU]
 
 Step comparison  Energy Drift [au]  DIIS error drift  Gradient drift
       17            2.5557E-10         1.6571E-07       4.9546E-06
 ======================================================================
 ITERATION STEP  19
 CPU time [min]:     3.014                   Wall time [min]:     0.136
 

 SCF control                  : diis
 Damping factor/level shift   : 0.000/0.000
 DIIS [start/end/frequency]   :   2 / 50 /  1

 Constructing Fock-matrix...
 
 Pipek-Mezey localization...
 Step  Convergence
   1  18.272124247841
   2   9.872666051209
   3  10.976873625397
   4   3.370938319656
   5   0.212354225748
   6   0.033413153467
   7   0.000573862651
   8   0.000125700624
   9   0.000009313580
  10   0.000001723421
  11   0.000000232943
  12   0.000000038962
  13   0.000000006005
  14   0.000000000980
  15   0.000000000155
  16   0.000000000025
  17   0.000000000004
  18   0.000000000001
 CPU time [min]:     3.038                   Wall time [min]:     0.137
 
 Constructing local fitting domains...
 Local fitting domains are unchanged.
 
 First step of Coulomb + first step of exchange...
 Exchange contribution is evaluated for MOs 1 to 38.
   1% done.
  13% done.
  25% done.
  38% done.
  56% done.
  75% done.
  89% done.
 100% done.
 CPU time [min]:     3.130                   Wall time [min]:     0.141
 
 Fitting and assembly step of exchange...
 CPU time [min]:     3.136                   Wall time [min]:     0.141
 
 Second step of Coulomb...
   1% done.
  13% done.
  25% done.
  38% done.
  56% done.
  75% done.
  89% done.
 100% done.
 CPU time [min]:     3.169                   Wall time [min]:     0.142
 
 Gradient norm:      1.4352E-06
 DIIS is running in this iteration step.
 RMS of [F,P]:                                         0.00000003852647
 RMS of difference density:                            0.00000007511000
 Gap [au]:  0.18926667
 ALPHA OCC:  38
 BETA  OCC:  38
 
 ***HARTREE-FOCK ENERGY IN STEP  19 IS       -777.0515436064683854 [AU]
 
 Step comparison  Energy Drift [au]  DIIS error drift  Gradient drift
       18            4.7294E-11         4.2825E-08       2.6996E-06
 ======================================================================
 
 SUCCESS...
 THE SCF ITERATION HAS CONVERGED!
 
                   A   
 FINAL ALPHA OCC:  38
 FINAL BETA  OCC:  38
 
 ***FINAL HARTREE-FOCK ENERGY:       -777.0515436064683854 [AU]
 
 Orbital energies [au]:
      Irrep         Alpha          Beta
    1   A         -4.998069      -4.998069
    2   A         -4.997797      -4.997797
    3   A         -4.975582      -4.975582
    4   A         -4.930570      -4.930570
    5   A         -3.219848      -3.219848
    6   A         -3.214842      -3.214842
    7   A         -3.214638      -3.214638
    8   A         -3.213225      -3.213225
    9   A         -3.212795      -3.212795
   10   A         -3.212507      -3.212507
   11   A         -3.193912      -3.193912
   12   A         -3.191083      -3.191083
   13   A         -3.189591      -3.189591
   14   A         -3.148869      -3.148869
   15   A         -3.145581      -3.145581
   16   A         -3.145519      -3.145519
   17   A         -0.523454      -0.523454
   18   A         -0.511211      -0.511211
   19   A         -0.507495      -0.507495
   20   A         -0.496585      -0.496585
   21   A         -0.492417      -0.492417
   22   A         -0.491269      -0.491269
   23   A         -0.483779      -0.483779
   24   A         -0.468281      -0.468281
   25   A         -0.463669      -0.463669
   26   A         -0.461247      -0.461247
   27   A         -0.458638      -0.458638
   28   A         -0.456888      -0.456888
   29   A         -0.454838      -0.454838
   30   A         -0.454816      -0.454816
   31   A         -0.437764      -0.437764
   32   A         -0.414817      -0.414817
   33   A         -0.414815      -0.414815
   34   A         -0.407296      -0.407296
   35   A         -0.403631      -0.403631
   36   A         -0.397279      -0.397279
   37   A         -0.299879      -0.299879
   38   A         -0.189956      -0.189956
 
   39   A         -0.000689      -0.000689
   40   A          0.028904       0.028904
   41   A          0.100205       0.100205
   42   A          0.150873       0.150873
   43   A          0.153109       0.153109
   44   A          0.183644       0.183644
   45   A          0.218800       0.218800
   46   A          0.219135       0.219135
   47   A          0.249557       0.249557
   48   A          0.257806       0.257806
   49   A          0.285773       0.285773
   50   A          0.321456       0.321456
   51   A          0.324837       0.324837
   52   A          0.399179       0.399179
   53   A          0.491634       0.491634
   54   A          0.544119       0.544119
   55   A          0.645444       0.645444
   56   A          0.742518       0.742518
   57   A          1.157137       1.157137
   58   A          1.187546       1.187546
   59   A          1.232074       1.232074
   60   A          1.265717       1.265717
   61   A          1.266328       1.266328
   62   A          1.295568       1.295568
   63   A          1.328663       1.328663
   64   A          1.395234       1.395234
   65   A          1.398742       1.398742
   66   A          1.417698       1.417698
   67   A          1.474450       1.474450
   68   A          1.485987       1.485987
   69   A          1.499514       1.499514
   70   A          1.555591       1.555591
   71   A          1.607999       1.607999
   72   A          1.714388       1.714388
   73   A          1.800247       1.800247
   74   A          1.996080       1.996080
   75   A          2.012527       2.012527
   76   A          2.127876       2.127876
   77   A          6.300235       6.300235
   78   A          6.300744       6.300744
   79   A          6.300750       6.300750
   80   A          6.301092       6.301092
   81   A          6.301964       6.301964
   82   A          6.302248       6.302248
   83   A          6.302425       6.302425
   84   A          6.302772       6.302772
   85   A          6.303064       6.303064
   86   A          6.303324       6.303324
   87   A          6.303978       6.303978
   88   A          6.304917       6.304917
   89   A          6.308743       6.308743
   90   A          6.321847       6.321847
   91   A          6.328716       6.328716
   92   A          6.328767       6.328767
   93   A          6.329677       6.329677
   94   A          6.329768       6.329768
   95   A          6.330736       6.330736
   96   A          6.338607       6.338607
   97   A          6.342882       6.342882
   98   A          6.368236       6.368236
   99   A          6.368238       6.368238
  100   A          6.368498       6.368498
  101   A          6.368618       6.368618
  102   A          6.370973       6.370973
  103   A          6.370973       6.370973
  104   A          6.381782       6.381782
  105   A        100.091400     100.091400
  106   A        100.196715     100.196715
  107   A        100.359464     100.359464
  108   A        100.455048     100.455048
  109   A        108.735003     108.735003
  110   A        108.819485     108.819485
  111   A        108.821672     108.821672
  112   A        108.847604     108.847604
  113   A        108.862900     108.862900
  114   A        108.883793     108.883793
  115   A        108.922591     108.922591
  116   A        109.016648     109.016648
  117   A        109.022525     109.022525
  118   A        109.112681     109.112681
  119   A        109.183621     109.183621
  120   A        109.520593     109.520593
  121   A        315.836684     315.836684
  122   A        315.918878     315.918878
  123   A        315.988731     315.988731
  124   A        316.045900     316.045900
 
 RETURNING FROM SCF ALGORITHM
 ======================================================================

 ************************ 2022-11-12 09:41:52 *************************
 Executing integ...

 Allocation of 150.0 Gbytes of memory...
 
 
 Number of atoms:                  4
 Charge:                           0
 Number of electrons:             76
 Number of core electrons:        32
 Spin multiplicity:                1
 
                 Cartesian coordinates [bohr]      Atomic mass [AMU]  Z
   1  Cu   -1.50328515    4.14022981   -0.15486466    62.929599      29
   2  Cu   -1.94664693   -4.14022981   -1.71968418    62.929599      29
   3  Cu   -0.82408530   -0.27672535   -0.42472396    62.929599      29
   4  Cu    1.94664693    2.50906243    1.71968418    62.929599      29
 
 This molecule is an asymmetric top.
 This molecule is planar.
 
 Point group: C1  
 Computational point group: C1  
 
 Cartesian coordinates in standard orientation [bohr]
   1  Cu    3.02689208   -2.12575790    0.00003506
   2  Cu   -5.13972763   -0.00030177    0.00006538
   3  Cu   -0.91317667    0.00015074   -0.00013551
   4  Cu    3.02601221    2.12590893    0.00003508
 
 Nuclear repulsion energy [au]:        417.165650803070
 
 
 Basis set information:
 
 Maximum angular momentum: i
 Maximum number of contracted Gaussians:   16
 Maximum number of primitive Gaussians:    19
 Spherical harmonic GTOs are used.
 
 
 Conventional basis set:
 
   1  Cu bse_acvdz [ 10s 9p 8d 3f | 6s 6p 5d 3f ]
   2  Cu bse_acvdz [ 10s 9p 8d 3f | 6s 6p 5d 3f ]
   3  Cu bse_acvdz [ 10s 9p 8d 3f | 6s 6p 5d 3f ]
   4  Cu bse_acvdz [ 10s 9p 8d 3f | 6s 6p 5d 3f ]
 
 Basis functions:
            1             2             3             4             5             6             7             8             9            10
    0    1Cu1s         1Cu2s         1Cu3s         1Cu4s         1Cu5s         1Cu6s         1Cu1pz        1Cu1py        1Cu1px        1Cu2pz    
    1    1Cu2py        1Cu2px        1Cu3pz        1Cu3py        1Cu3px        1Cu4pz        1Cu4py        1Cu4px        1Cu5pz        1Cu5py    
    2    1Cu5px        1Cu6pz        1Cu6py        1Cu6px        1Cu1d-2       1Cu1d-1       1Cu1d0        1Cu1d+1       1Cu1d+2       1Cu2d-2   
    3    1Cu2d-1       1Cu2d0        1Cu2d+1       1Cu2d+2       1Cu3d-2       1Cu3d-1       1Cu3d0        1Cu3d+1       1Cu3d+2       1Cu4d-2   
    4    1Cu4d-1       1Cu4d0        1Cu4d+1       1Cu4d+2       1Cu5d-2       1Cu5d-1       1Cu5d0        1Cu5d+1       1Cu5d+2       1Cu1f-3   
    5    1Cu1f-2       1Cu1f-1       1Cu1f0        1Cu1f+1       1Cu1f+2       1Cu1f+3       1Cu2f-3       1Cu2f-2       1Cu2f-1       1Cu2f0    
    6    1Cu2f+1       1Cu2f+2       1Cu2f+3       1Cu3f-3       1Cu3f-2       1Cu3f-1       1Cu3f0        1Cu3f+1       1Cu3f+2       1Cu3f+3   
    7    2Cu1s         2Cu2s         2Cu3s         2Cu4s         2Cu5s         2Cu6s         2Cu1pz        2Cu1py        2Cu1px        2Cu2pz    
    8    2Cu2py        2Cu2px        2Cu3pz        2Cu3py        2Cu3px        2Cu4pz        2Cu4py        2Cu4px        2Cu5pz        2Cu5py    
    9    2Cu5px        2Cu6pz        2Cu6py        2Cu6px        2Cu1d-2       2Cu1d-1       2Cu1d0        2Cu1d+1       2Cu1d+2       2Cu2d-2   
   10    2Cu2d-1       2Cu2d0        2Cu2d+1       2Cu2d+2       2Cu3d-2       2Cu3d-1       2Cu3d0        2Cu3d+1       2Cu3d+2       2Cu4d-2   
   11    2Cu4d-1       2Cu4d0        2Cu4d+1       2Cu4d+2       2Cu5d-2       2Cu5d-1       2Cu5d0        2Cu5d+1       2Cu5d+2       2Cu1f-3   
   12    2Cu1f-2       2Cu1f-1       2Cu1f0        2Cu1f+1       2Cu1f+2       2Cu1f+3       2Cu2f-3       2Cu2f-2       2Cu2f-1       2Cu2f0    
   13    2Cu2f+1       2Cu2f+2       2Cu2f+3       2Cu3f-3       2Cu3f-2       2Cu3f-1       2Cu3f0        2Cu3f+1       2Cu3f+2       2Cu3f+3   
   14    3Cu1s         3Cu2s         3Cu3s         3Cu4s         3Cu5s         3Cu6s         3Cu1pz        3Cu1py        3Cu1px        3Cu2pz    
   15    3Cu2py        3Cu2px        3Cu3pz        3Cu3py        3Cu3px        3Cu4pz        3Cu4py        3Cu4px        3Cu5pz        3Cu5py    
   16    3Cu5px        3Cu6pz        3Cu6py        3Cu6px        3Cu1d-2       3Cu1d-1       3Cu1d0        3Cu1d+1       3Cu1d+2       3Cu2d-2   
   17    3Cu2d-1       3Cu2d0        3Cu2d+1       3Cu2d+2       3Cu3d-2       3Cu3d-1       3Cu3d0        3Cu3d+1       3Cu3d+2       3Cu4d-2   
   18    3Cu4d-1       3Cu4d0        3Cu4d+1       3Cu4d+2       3Cu5d-2       3Cu5d-1       3Cu5d0        3Cu5d+1       3Cu5d+2       3Cu1f-3   
   19    3Cu1f-2       3Cu1f-1       3Cu1f0        3Cu1f+1       3Cu1f+2       3Cu1f+3       3Cu2f-3       3Cu2f-2       3Cu2f-1       3Cu2f0    
   20    3Cu2f+1       3Cu2f+2       3Cu2f+3       3Cu3f-3       3Cu3f-2       3Cu3f-1       3Cu3f0        3Cu3f+1       3Cu3f+2       3Cu3f+3   
   21    4Cu1s         4Cu2s         4Cu3s         4Cu4s         4Cu5s         4Cu6s         4Cu1pz        4Cu1py        4Cu1px        4Cu2pz    
   22    4Cu2py        4Cu2px        4Cu3pz        4Cu3py        4Cu3px        4Cu4pz        4Cu4py        4Cu4px        4Cu5pz        4Cu5py    
   23    4Cu5px        4Cu6pz        4Cu6py        4Cu6px        4Cu1d-2       4Cu1d-1       4Cu1d0        4Cu1d+1       4Cu1d+2       4Cu2d-2   
   24    4Cu2d-1       4Cu2d0        4Cu2d+1       4Cu2d+2       4Cu3d-2       4Cu3d-1       4Cu3d0        4Cu3d+1       4Cu3d+2       4Cu4d-2   
   25    4Cu4d-1       4Cu4d0        4Cu4d+1       4Cu4d+2       4Cu5d-2       4Cu5d-1       4Cu5d0        4Cu5d+1       4Cu5d+2       4Cu1f-3   
   26    4Cu1f-2       4Cu1f-1       4Cu1f0        4Cu1f+1       4Cu1f+2       4Cu1f+3       4Cu2f-3       4Cu2f-2       4Cu2f-1       4Cu2f0    
   27    4Cu2f+1       4Cu2f+2       4Cu2f+3       4Cu3f-3       4Cu3f-2       4Cu3f-1       4Cu3f0        4Cu3f+1       4Cu3f+2       4Cu3f+3   
 
 Maximum number of basis functions per shell:   25
 Total number of basis functions:    280
 
 
 Fitting basis set for the SCF calculation:
 
   1  Cu def2-qzvpp-ri-jk [ 19s 14p 12d 10f 7g 3h 1i | 16s 13p 11d 9f 5g 3h 1i ]
   2  Cu def2-qzvpp-ri-jk [ 19s 14p 12d 10f 7g 3h 1i | 16s 13p 11d 9f 5g 3h 1i ]
   3  Cu def2-qzvpp-ri-jk [ 19s 14p 12d 10f 7g 3h 1i | 16s 13p 11d 9f 5g 3h 1i ]
   4  Cu def2-qzvpp-ri-jk [ 19s 14p 12d 10f 7g 3h 1i | 16s 13p 11d 9f 5g 3h 1i ]
 
 Basis functions:
            1             2             3             4             5             6             7             8             9            10
    0    1Cu1s         1Cu2s         1Cu3s         1Cu4s         1Cu5s         1Cu6s         1Cu7s         1Cu8s         1Cu9s         1Cu10s    
    1    1Cu11s        1Cu12s        1Cu13s        1Cu14s        1Cu15s        1Cu16s        1Cu1pz        1Cu1py        1Cu1px        1Cu2pz    
    2    1Cu2py        1Cu2px        1Cu3pz        1Cu3py        1Cu3px        1Cu4pz        1Cu4py        1Cu4px        1Cu5pz        1Cu5py    
    3    1Cu5px        1Cu6pz        1Cu6py        1Cu6px        1Cu7pz        1Cu7py        1Cu7px        1Cu8pz        1Cu8py        1Cu8px    
    4    1Cu9pz        1Cu9py        1Cu9px        1Cu10pz       1Cu10py       1Cu10px       1Cu11pz       1Cu11py       1Cu11px       1Cu12pz   
    5    1Cu12py       1Cu12px       1Cu13pz       1Cu13py       1Cu13px       1Cu1d-2       1Cu1d-1       1Cu1d0        1Cu1d+1       1Cu1d+2   
    6    1Cu2d-2       1Cu2d-1       1Cu2d0        1Cu2d+1       1Cu2d+2       1Cu3d-2       1Cu3d-1       1Cu3d0        1Cu3d+1       1Cu3d+2   
    7    1Cu4d-2       1Cu4d-1       1Cu4d0        1Cu4d+1       1Cu4d+2       1Cu5d-2       1Cu5d-1       1Cu5d0        1Cu5d+1       1Cu5d+2   
    8    1Cu6d-2       1Cu6d-1       1Cu6d0        1Cu6d+1       1Cu6d+2       1Cu7d-2       1Cu7d-1       1Cu7d0        1Cu7d+1       1Cu7d+2   
    9    1Cu8d-2       1Cu8d-1       1Cu8d0        1Cu8d+1       1Cu8d+2       1Cu9d-2       1Cu9d-1       1Cu9d0        1Cu9d+1       1Cu9d+2   
   10    1Cu10d-2      1Cu10d-1      1Cu10d0       1Cu10d+1      1Cu10d+2      1Cu11d-2      1Cu11d-1      1Cu11d0       1Cu11d+1      1Cu11d+2  
   11    1Cu1f-3       1Cu1f-2       1Cu1f-1       1Cu1f0        1Cu1f+1       1Cu1f+2       1Cu1f+3       1Cu2f-3       1Cu2f-2       1Cu2f-1   
   12    1Cu2f0        1Cu2f+1       1Cu2f+2       1Cu2f+3       1Cu3f-3       1Cu3f-2       1Cu3f-1       1Cu3f0        1Cu3f+1       1Cu3f+2   
   13    1Cu3f+3       1Cu4f-3       1Cu4f-2       1Cu4f-1       1Cu4f0        1Cu4f+1       1Cu4f+2       1Cu4f+3       1Cu5f-3       1Cu5f-2   
   14    1Cu5f-1       1Cu5f0        1Cu5f+1       1Cu5f+2       1Cu5f+3       1Cu6f-3       1Cu6f-2       1Cu6f-1       1Cu6f0        1Cu6f+1   
   15    1Cu6f+2       1Cu6f+3       1Cu7f-3       1Cu7f-2       1Cu7f-1       1Cu7f0        1Cu7f+1       1Cu7f+2       1Cu7f+3       1Cu8f-3   
   16    1Cu8f-2       1Cu8f-1       1Cu8f0        1Cu8f+1       1Cu8f+2       1Cu8f+3       1Cu9f-3       1Cu9f-2       1Cu9f-1       1Cu9f0    
   17    1Cu9f+1       1Cu9f+2       1Cu9f+3       1Cu1g-4       1Cu1g-3       1Cu1g-2       1Cu1g-1       1Cu1g0        1Cu1g+1       1Cu1g+2   
   18    1Cu1g+3       1Cu1g+4       1Cu2g-4       1Cu2g-3       1Cu2g-2       1Cu2g-1       1Cu2g0        1Cu2g+1       1Cu2g+2       1Cu2g+3   
   19    1Cu2g+4       1Cu3g-4       1Cu3g-3       1Cu3g-2       1Cu3g-1       1Cu3g0        1Cu3g+1       1Cu3g+2       1Cu3g+3       1Cu3g+4   
   20    1Cu4g-4       1Cu4g-3       1Cu4g-2       1Cu4g-1       1Cu4g0        1Cu4g+1       1Cu4g+2       1Cu4g+3       1Cu4g+4       1Cu5g-4   
   21    1Cu5g-3       1Cu5g-2       1Cu5g-1       1Cu5g0        1Cu5g+1       1Cu5g+2       1Cu5g+3       1Cu5g+4       1Cu1h-5       1Cu1h-4   
   22    1Cu1h-3       1Cu1h-2       1Cu1h-1       1Cu1h0        1Cu1h+1       1Cu1h+2       1Cu1h+3       1Cu1h+4       1Cu1h+5       1Cu2h-5   
   23    1Cu2h-4       1Cu2h-3       1Cu2h-2       1Cu2h-1       1Cu2h0        1Cu2h+1       1Cu2h+2       1Cu2h+3       1Cu2h+4       1Cu2h+5   
   24    1Cu3h-5       1Cu3h-4       1Cu3h-3       1Cu3h-2       1Cu3h-1       1Cu3h0        1Cu3h+1       1Cu3h+2       1Cu3h+3       1Cu3h+4   
   25    1Cu3h+5       1Cu1i-6       1Cu1i-5       1Cu1i-4       1Cu1i-3       1Cu1i-2       1Cu1i-1       1Cu1i0        1Cu1i+1       1Cu1i+2   
   26    1Cu1i+3       1Cu1i+4       1Cu1i+5       1Cu1i+6       2Cu1s         2Cu2s         2Cu3s         2Cu4s         2Cu5s         2Cu6s     
   27    2Cu7s         2Cu8s         2Cu9s         2Cu10s        2Cu11s        2Cu12s        2Cu13s        2Cu14s        2Cu15s        2Cu16s    
   28    2Cu1pz        2Cu1py        2Cu1px        2Cu2pz        2Cu2py        2Cu2px        2Cu3pz        2Cu3py        2Cu3px        2Cu4pz    
   29    2Cu4py        2Cu4px        2Cu5pz        2Cu5py        2Cu5px        2Cu6pz        2Cu6py        2Cu6px        2Cu7pz        2Cu7py    
   30    2Cu7px        2Cu8pz        2Cu8py        2Cu8px        2Cu9pz        2Cu9py        2Cu9px        2Cu10pz       2Cu10py       2Cu10px   
[...]
   40    2Cu3g-1       2Cu3g0        2Cu3g+1       2Cu3g+2       2Cu3g+3       2Cu3g+4       2Cu4g-4       2Cu4g-3       2Cu4g-2       2Cu4g-1   
   41    2Cu4g0        2Cu4g+1       2Cu4g+2       2Cu4g+3       2Cu4g+4       2Cu5g-4       2Cu5g-3       2Cu5g-2       2Cu5g-1       2Cu5g0    
   42    2Cu5g+1       2Cu5g+2       2Cu5g+3       2Cu5g+4       2Cu6g-4       2Cu6g-3       2Cu6g-2       2Cu6g-1       2Cu6g0        2Cu6g+1   
   43    2Cu6g+2       2Cu6g+3       2Cu6g+4       2Cu7g-4       2Cu7g-3       2Cu7g-2       2Cu7g-1       2Cu7g0        2Cu7g+1       2Cu7g+2   
   44    2Cu7g+3       2Cu7g+4       2Cu1h-5       2Cu1h-4       2Cu1h-3       2Cu1h-2       2Cu1h-1       2Cu1h0        2Cu1h+1       2Cu1h+2   
   45    2Cu1h+3       2Cu1h+4       2Cu1h+5       2Cu2h-5       2Cu2h-4       2Cu2h-3       2Cu2h-2       2Cu2h-1       2Cu2h0        2Cu2h+1   
   46    2Cu2h+2       2Cu2h+3       2Cu2h+4       2Cu2h+5       2Cu3h-5       2Cu3h-4       2Cu3h-3       2Cu3h-2       2Cu3h-1       2Cu3h0    
   47    2Cu3h+1       2Cu3h+2       2Cu3h+3       2Cu3h+4       2Cu3h+5       2Cu4h-5       2Cu4h-4       2Cu4h-3       2Cu4h-2       2Cu4h-1   
   48    2Cu4h0        2Cu4h+1       2Cu4h+2       2Cu4h+3       2Cu4h+4       2Cu4h+5       3Cu1s         3Cu2s         3Cu3s         3Cu4s     
   49    3Cu5s         3Cu6s         3Cu7s         3Cu8s         3Cu9s         3Cu10s        3Cu1pz        3Cu1py        3Cu1px        3Cu2pz    
   50    3Cu2py        3Cu2px        3Cu3pz        3Cu3py        3Cu3px        3Cu4pz        3Cu4py        3Cu4px        3Cu5pz        3Cu5py    
   51    3Cu5px        3Cu6pz        3Cu6py        3Cu6px        3Cu7pz        3Cu7py        3Cu7px        3Cu8pz        3Cu8py        3Cu8px    
   52    3Cu9pz        3Cu9py        3Cu9px        3Cu10pz       3Cu10py       3Cu10px       3Cu1d-2       3Cu1d-1       3Cu1d0        3Cu1d+1   
   53    3Cu1d+2       3Cu2d-2       3Cu2d-1       3Cu2d0        3Cu2d+1       3Cu2d+2       3Cu3d-2       3Cu3d-1       3Cu3d0        3Cu3d+1   
   54    3Cu3d+2       3Cu4d-2       3Cu4d-1       3Cu4d0        3Cu4d+1       3Cu4d+2       3Cu5d-2       3Cu5d-1       3Cu5d0        3Cu5d+1   
   55    3Cu5d+2       3Cu6d-2       3Cu6d-1       3Cu6d0        3Cu6d+1       3Cu6d+2       3Cu7d-2       3Cu7d-1       3Cu7d0        3Cu7d+1   
   56    3Cu7d+2       3Cu8d-2       3Cu8d-1       3Cu8d0        3Cu8d+1       3Cu8d+2       3Cu1f-3       3Cu1f-2       3Cu1f-1       3Cu1f0    
   57    3Cu1f+1       3Cu1f+2       3Cu1f+3       3Cu2f-3       3Cu2f-2       3Cu2f-1       3Cu2f0        3Cu2f+1       3Cu2f+2       3Cu2f+3   
   58    3Cu3f-3       3Cu3f-2       3Cu3f-1       3Cu3f0        3Cu3f+1       3Cu3f+2       3Cu3f+3       3Cu4f-3       3Cu4f-2       3Cu4f-1   
   59    3Cu4f0        3Cu4f+1       3Cu4f+2       3Cu4f+3       3Cu5f-3       3Cu5f-2       3Cu5f-1       3Cu5f0        3Cu5f+1       3Cu5f+2   
   60    3Cu5f+3       3Cu6f-3       3Cu6f-2       3Cu6f-1       3Cu6f0        3Cu6f+1       3Cu6f+2       3Cu6f+3       3Cu7f-3       3Cu7f-2   
   61    3Cu7f-1       3Cu7f0        3Cu7f+1       3Cu7f+2       3Cu7f+3       3Cu8f-3       3Cu8f-2       3Cu8f-1       3Cu8f0        3Cu8f+1   
   62    3Cu8f+2       3Cu8f+3       3Cu1g-4       3Cu1g-3       3Cu1g-2       3Cu1g-1       3Cu1g0        3Cu1g+1       3Cu1g+2       3Cu1g+3   
   63    3Cu1g+4       3Cu2g-4       3Cu2g-3       3Cu2g-2       3Cu2g-1       3Cu2g0        3Cu2g+1       3Cu2g+2       3Cu2g+3       3Cu2g+4   
   64    3Cu3g-4       3Cu3g-3       3Cu3g-2       3Cu3g-1       3Cu3g0        3Cu3g+1       3Cu3g+2       3Cu3g+3       3Cu3g+4       3Cu4g-4   
   65    3Cu4g-3       3Cu4g-2       3Cu4g-1       3Cu4g0        3Cu4g+1       3Cu4g+2       3Cu4g+3       3Cu4g+4       3Cu5g-4       3Cu5g-3   
   66    3Cu5g-2       3Cu5g-1       3Cu5g0        3Cu5g+1       3Cu5g+2       3Cu5g+3       3Cu5g+4       3Cu6g-4       3Cu6g-3       3Cu6g-2   
   67    3Cu6g-1       3Cu6g0        3Cu6g+1       3Cu6g+2       3Cu6g+3       3Cu6g+4       3Cu7g-4       3Cu7g-3       3Cu7g-2       3Cu7g-1   
   68    3Cu7g0        3Cu7g+1       3Cu7g+2       3Cu7g+3       3Cu7g+4       3Cu1h-5       3Cu1h-4       3Cu1h-3       3Cu1h-2       3Cu1h-1   
   69    3Cu1h0        3Cu1h+1       3Cu1h+2       3Cu1h+3       3Cu1h+4       3Cu1h+5       3Cu2h-5       3Cu2h-4       3Cu2h-3       3Cu2h-2   
   70    3Cu2h-1       3Cu2h0        3Cu2h+1       3Cu2h+2       3Cu2h+3       3Cu2h+4       3Cu2h+5       3Cu3h-5       3Cu3h-4       3Cu3h-3   
   71    3Cu3h-2       3Cu3h-1       3Cu3h0        3Cu3h+1       3Cu3h+2       3Cu3h+3       3Cu3h+4       3Cu3h+5       3Cu4h-5       3Cu4h-4   
   72    3Cu4h-3       3Cu4h-2       3Cu4h-1       3Cu4h0        3Cu4h+1       3Cu4h+2       3Cu4h+3       3Cu4h+4       3Cu4h+5       4Cu1s     
   73    4Cu2s         4Cu3s         4Cu4s         4Cu5s         4Cu6s         4Cu7s         4Cu8s         4Cu9s         4Cu10s        4Cu1pz    
   74    4Cu1py        4Cu1px        4Cu2pz        4Cu2py        4Cu2px        4Cu3pz        4Cu3py        4Cu3px        4Cu4pz        4Cu4py    
   75    4Cu4px        4Cu5pz        4Cu5py        4Cu5px        4Cu6pz        4Cu6py        4Cu6px        4Cu7pz        4Cu7py        4Cu7px    
   76    4Cu8pz        4Cu8py        4Cu8px        4Cu9pz        4Cu9py        4Cu9px        4Cu10pz       4Cu10py       4Cu10px       4Cu1d-2   
   77    4Cu1d-1       4Cu1d0        4Cu1d+1       4Cu1d+2       4Cu2d-2       4Cu2d-1       4Cu2d0        4Cu2d+1       4Cu2d+2       4Cu3d-2   
   78    4Cu3d-1       4Cu3d0        4Cu3d+1       4Cu3d+2       4Cu4d-2       4Cu4d-1       4Cu4d0        4Cu4d+1       4Cu4d+2       4Cu5d-2   
   79    4Cu5d-1       4Cu5d0        4Cu5d+1       4Cu5d+2       4Cu6d-2       4Cu6d-1       4Cu6d0        4Cu6d+1       4Cu6d+2       4Cu7d-2   
   80    4Cu7d-1       4Cu7d0        4Cu7d+1       4Cu7d+2       4Cu8d-2       4Cu8d-1       4Cu8d0        4Cu8d+1       4Cu8d+2       4Cu1f-3   
   81    4Cu1f-2       4Cu1f-1       4Cu1f0        4Cu1f+1       4Cu1f+2       4Cu1f+3       4Cu2f-3       4Cu2f-2       4Cu2f-1       4Cu2f0    
   82    4Cu2f+1       4Cu2f+2       4Cu2f+3       4Cu3f-3       4Cu3f-2       4Cu3f-1       4Cu3f0        4Cu3f+1       4Cu3f+2       4Cu3f+3   
   83    4Cu4f-3       4Cu4f-2       4Cu4f-1       4Cu4f0        4Cu4f+1       4Cu4f+2       4Cu4f+3       4Cu5f-3       4Cu5f-2       4Cu5f-1   
   84    4Cu5f0        4Cu5f+1       4Cu5f+2       4Cu5f+3       4Cu6f-3       4Cu6f-2       4Cu6f-1       4Cu6f0        4Cu6f+1       4Cu6f+2   
   85    4Cu6f+3       4Cu7f-3       4Cu7f-2       4Cu7f-1       4Cu7f0        4Cu7f+1       4Cu7f+2       4Cu7f+3       4Cu8f-3       4Cu8f-2   
   86    4Cu8f-1       4Cu8f0        4Cu8f+1       4Cu8f+2       4Cu8f+3       4Cu1g-4       4Cu1g-3       4Cu1g-2       4Cu1g-1       4Cu1g0    
   87    4Cu1g+1       4Cu1g+2       4Cu1g+3       4Cu1g+4       4Cu2g-4       4Cu2g-3       4Cu2g-2       4Cu2g-1       4Cu2g0        4Cu2g+1   
   88    4Cu2g+2       4Cu2g+3       4Cu2g+4       4Cu3g-4       4Cu3g-3       4Cu3g-2       4Cu3g-1       4Cu3g0        4Cu3g+1       4Cu3g+2   
   89    4Cu3g+3       4Cu3g+4       4Cu4g-4       4Cu4g-3       4Cu4g-2       4Cu4g-1       4Cu4g0        4Cu4g+1       4Cu4g+2       4Cu4g+3   
   90    4Cu4g+4       4Cu5g-4       4Cu5g-3       4Cu5g-2       4Cu5g-1       4Cu5g0        4Cu5g+1       4Cu5g+2       4Cu5g+3       4Cu5g+4   
   91    4Cu6g-4       4Cu6g-3       4Cu6g-2       4Cu6g-1       4Cu6g0        4Cu6g+1       4Cu6g+2       4Cu6g+3       4Cu6g+4       4Cu7g-4   
   92    4Cu7g-3       4Cu7g-2       4Cu7g-1       4Cu7g0        4Cu7g+1       4Cu7g+2       4Cu7g+3       4Cu7g+4       4Cu1h-5       4Cu1h-4   
   93    4Cu1h-3       4Cu1h-2       4Cu1h-1       4Cu1h0        4Cu1h+1       4Cu1h+2       4Cu1h+3       4Cu1h+4       4Cu1h+5       4Cu2h-5   
   94    4Cu2h-4       4Cu2h-3       4Cu2h-2       4Cu2h-1       4Cu2h0        4Cu2h+1       4Cu2h+2       4Cu2h+3       4Cu2h+4       4Cu2h+5   
   95    4Cu3h-5       4Cu3h-4       4Cu3h-3       4Cu3h-2       4Cu3h-1       4Cu3h0        4Cu3h+1       4Cu3h+2       4Cu3h+3       4Cu3h+4   
   96    4Cu3h+5       4Cu4h-5       4Cu4h-4       4Cu4h-3       4Cu4h-2       4Cu4h-1       4Cu4h0        4Cu4h+1       4Cu4h+2       4Cu4h+3   
   97    4Cu4h+4       4Cu4h+5   
 
 Maximum number of basis functions per shell:   63
 Total number of basis functions:    972
 
 
 Old basis set for SCF restart
 
   1  Cu def2-svp [ 14s 9p 5d 1f | 5s 3p 2d 1f ]
   2  Cu def2-svp [ 14s 9p 5d 1f | 5s 3p 2d 1f ]
   3  Cu def2-svp [ 14s 9p 5d 1f | 5s 3p 2d 1f ]
   4  Cu def2-svp [ 14s 9p 5d 1f | 5s 3p 2d 1f ]
 
 Basis functions:
            1             2             3             4             5             6             7             8             9            10
    0    1Cu1s         1Cu2s         1Cu3s         1Cu4s         1Cu5s         1Cu1pz        1Cu1py        1Cu1px        1Cu2pz        1Cu2py    
    1    1Cu2px        1Cu3pz        1Cu3py        1Cu3px        1Cu1d-2       1Cu1d-1       1Cu1d0        1Cu1d+1       1Cu1d+2       1Cu2d-2   
    2    1Cu2d-1       1Cu2d0        1Cu2d+1       1Cu2d+2       1Cu1f-3       1Cu1f-2       1Cu1f-1       1Cu1f0        1Cu1f+1       1Cu1f+2   
    3    1Cu1f+3       2Cu1s         2Cu2s         2Cu3s         2Cu4s         2Cu5s         2Cu1pz        2Cu1py        2Cu1px        2Cu2pz    
    4    2Cu2py        2Cu2px        2Cu3pz        2Cu3py        2Cu3px        2Cu1d-2       2Cu1d-1       2Cu1d0        2Cu1d+1       2Cu1d+2   
    5    2Cu2d-2       2Cu2d-1       2Cu2d0        2Cu2d+1       2Cu2d+2       2Cu1f-3       2Cu1f-2       2Cu1f-1       2Cu1f0        2Cu1f+1   
    6    2Cu1f+2       2Cu1f+3       3Cu1s         3Cu2s         3Cu3s         3Cu4s         3Cu5s         3Cu1pz        3Cu1py        3Cu1px    
    7    3Cu2pz        3Cu2py        3Cu2px        3Cu3pz        3Cu3py        3Cu3px        3Cu1d-2       3Cu1d-1       3Cu1d0        3Cu1d+1   
    8    3Cu1d+2       3Cu2d-2       3Cu2d-1       3Cu2d0        3Cu2d+1       3Cu2d+2       3Cu1f-3       3Cu1f-2       3Cu1f-1       3Cu1f0    
    9    3Cu1f+1       3Cu1f+2       3Cu1f+3       4Cu1s         4Cu2s         4Cu3s         4Cu4s         4Cu5s         4Cu1pz        4Cu1py    
   10    4Cu1px        4Cu2pz        4Cu2py        4Cu2px        4Cu3pz        4Cu3py        4Cu3px        4Cu1d-2       4Cu1d-1       4Cu1d0    
   11    4Cu1d+1       4Cu1d+2       4Cu2d-2       4Cu2d-1       4Cu2d0        4Cu2d+1       4Cu2d+2       4Cu1f-3       4Cu1f-2       4Cu1f-1   
   12    4Cu1f0        4Cu1f+1       4Cu1f+2       4Cu1f+3   
 
 Maximum number of basis functions per shell:   63
 Total number of basis functions:    124
 
 
 Effective core potentials:
 
   1  Cu mcdhf-ecp-10        
   2  Cu mcdhf-ecp-10        
   3  Cu mcdhf-ecp-10        
   4  Cu mcdhf-ecp-10        
 
 Calculation of prescreening integrals...
 CPU time [min]:     0.921                   Wall time [min]:     0.044
 
 Calculation of two-center Coulomb integrals...
   1% done.
  15% done.
  26% done.
  41% done.
  56% done.
  69% done.
  91% done.
 100% done.
 CPU time [min]:     0.934                   Wall time [min]:     0.045
 
 Cholesky decomposition of the inverse of the two-center matrix...
 CPU time [min]:     0.955                   Wall time [min]:     0.046
 
 Calculation of three-center Coulomb integrals...
   1% done.
  18% done.
  34% done.
  46% done.
  60% done.
  86% done.
 100% done.
 CPU time [min]:     1.358                   Wall time [min]:     0.084

 ************************ 2022-11-12 09:42:23 *************************
 Executing drpa...

 Three-index integral transformation
 
 Allocation of 150.0 Gbytes of memory...
 Minimal memory requirement for (ai|P) and (ij|P) integrals:       22.9 MB

 Calculating (ai|P) and (ij|P) integrals...
 Number of integral batches:    1
 Occupied indices per batch:   38
 
 Transforming integrals of batch 1...
 CPU time [min]:     7.539                   Wall time [min]:     0.389
 

 Constructing MP2 natural orbitals...

 Threshold for individual occupations:     1.0000E-05
 Corresponding cummulative occupation threshold:  0.99995916  0.99995005
 Total number of virtual orbitals:     242
 Number of virtual natural orbitals:   225  (92.98%)
 
 Transforming (ai|P) integrals to the NO basis...
 Number of integral batches:    1
 Occupied indices per batch:   38
 
 Transforming integrals of batch 1 to the NO basis...
 CPU time [min]:    13.476                   Wall time [min]:     0.706

 Calculating (ab|P) integrals...
 Minimal memory requirement for (ab|P) integrals:       13.5 MB
 Number of integral batches:    1
 Virtual indices per batch:   225

 Transforming integrals of batch 1...
 CPU time [min]:    13.911                   Wall time [min]:     0.757
 

 Constructing natural auxiliary functions...

 Threshold for eigenvalues:     1.0000E-02
 Total number of auxiliary functions:     972
 Number of natural auxiliary functions:   842  (86.63%)

 Transforming (ai|P) and (ij|P) integrals to the NAF basis...
 Number of integral batches:    1
 Occupied indices per batch:   38
 
 Transforming integrals of batch 1 to the NAF basis...
 CPU time [min]:    19.837                   Wall time [min]:     1.072

 Transforming (ab|P) integrals to the NAF basis...
 Number of integral batches:    1
 Virtual indices per batch:   225

 Transforming integrals of batch 1 to the NAF basis...
 CPU time [min]:    19.981                   Wall time [min]:     1.110
 

 Results in full basis:
 
 
 Reference energy [au]:                      -784.696109478598
 DF-MP2 singlet pair energy [au]:              -2.472305719822
 DF-MP2 triplet pair energy [au]:              -1.242162703340
 DF-SCS-MP2 correlation energy [au]:           -3.380821098234
 DF-SCS-MP2 energy [au]:                     -788.076930576832
 DF-SOS-MP2 correlation energy [au]:           -3.213997435769
 DF-SOS-MP2 energy [au]:                     -787.910106914368
 DF-MP2 correlation energy [au]:               -3.714468423163
 DF-MP2 energy [au]:                         -788.410577901761

 Results in FNO basis:
 
 
 Reference energy [au]:                      -784.696109478598
 DF-MP2 singlet pair energy [au]:              -2.472089398199
 DF-MP2 triplet pair energy [au]:              -1.242120636406
 DF-SCS-MP2 correlation energy [au]:           -3.380547489974
 DF-SCS-MP2 energy [au]:                     -788.076656968572
 DF-SOS-MP2 correlation energy [au]:           -3.213716217658
 DF-SOS-MP2 energy [au]:                     -787.909825696257
 DF-MP2 correlation energy [au]:               -3.714210034604
 DF-MP2 energy [au]:                         -788.410319513203

 Results in NAF basis:
 
 
 Reference energy [au]:                      -784.696109478598
 DF-MP2 singlet pair energy [au]:              -2.471739688673
 DF-MP2 triplet pair energy [au]:              -1.242683019184
 DF-SCS-MP2 correlation energy [au]:           -3.380315299469
 DF-SCS-MP2 energy [au]:                     -788.076424778068
 DF-SOS-MP2 correlation energy [au]:           -3.213261595275
 DF-SOS-MP2 energy [au]:                     -787.909371073874
 DF-MP2 correlation energy [au]:               -3.714422707857
 DF-MP2 energy [au]:                         -788.410532186456

 ************************ 2022-11-12 09:43:30 *************************
 Executing ccsd...

 Allocation of 150.0 Gbytes of memory...

 Direct DF-CCSD(T) calculation
 
 Convergence criterion:  1.0E-06
 
 Number of occupied/virtual/auxiliary orbitals:    38   225   842
   2595.25 MB is the minimal memory requirement for (T)
   1325.10 MB is the minimal memory requirement for CCSD
 
 Reference energy [au]:            -784.696109478598
 T1 contribution [au]:                0.000000000000
 Same spin MP2 energy [au]:          -1.242401320715
 Opposite spin MP2 energy [au]:      -2.471913888006
 MP2 correlation energy [au]:        -3.714315208720
 Total MP2 energy [au]:            -788.410424687318
 MP2 correction [au]:                -0.000153214442
 
 
 CPU time [min]:     1.464                   Wall time [min]:     0.429
 
 Starting CCSD iterations...
 
                     Residual norm          Energy
 Iteration  1        1.171493156715     -787.638513026570
 Iteration  2        0.667268789590     -787.883126237223
 Iteration  3        0.107699099117     -787.930137131363
 Iteration  4        0.051172149377     -787.933269166173
 Iteration  5        0.030208501132     -787.926249184561
 Iteration  6        0.014791661641     -787.924385117211
 Iteration  7        0.010848346734     -787.925590900767
 Iteration  8        0.006324510364     -787.926143445117
 Iteration  9        0.004304759233     -787.925992348515
 Iteration 10        0.002320220635     -787.926078713835
 Iteration 11        0.001489917289     -787.926240172870
 Iteration 12        0.000897756294     -787.926199129242
 Iteration 13        0.000539254647     -787.926105112038
 Iteration 14        0.000341018228     -787.926099729922
 Iteration 15        0.000219288085     -787.926145829480
 Iteration 16        0.000130612927     -787.926157767620
 Iteration 17        0.000079364640     -787.926141011191
 Iteration 18        0.000045524929     -787.926137782478
 Iteration 19        0.000028332689     -787.926142204021
 Iteration 20        0.000017449788     -787.926142404845
 Iteration 21        0.000011265717     -787.926141360339
 Iteration 22        0.000007044488     -787.926141390027
 Iteration 23        0.000004685273     -787.926141719879
 
 CCSD iteration has converged in 23 steps.
    11108.58 MB memory was utilized by CCSD
 
 T1 diagnostic:      2.916E-02            D1 diagnostic:      1.241E-01
 
 T1 contribution [au]:                                  0.000000000000
 PPL energy contribution [au]:                          0.420970165659
 Scaled PPL energy contribution [au]:                   0.420980471985

 OS-PPL energy contribution [au]:                       0.312521710463
 Scaled OS-PPL energy contribution [au]:                0.312603561729
 SS-PPL energy contribution [au]:                       0.108448455196
 Scaled SS-PPL energy contribution [au]:                0.108400420161

 Opposite spin CCSD energy [au]:                       -2.257729051379
 Same spin CCSD energy [au]:                           -0.972282520575
 CCSD correlation energy [au]:                         -3.230011571954
 CCSD correlation energy + MP2 correction [au]:        -3.230164786396
 CCSD correlation energy + MP2 + PPL corr. [au]:       -3.230154480071
 Total CCSD energy [au]:                             -787.926121050552
 Total CCSD energy + MP2 correction [au]:            -787.926274264995
 Total CCSD energy + MP2 + PPL corr. [au]:           -787.926263958669
 
 CPU time [min]:   211.082                   Wall time [min]:    15.389
 
 Calculation of (T) correction...
 
 
     6156.05 MB memory is utilized for (T)

 0%       25%       50%       75%       100%
 |---------|---------|---------|---------| 
 
 (T) correction [au]:                                    -0.132692619157
 (T*) correction [au]:                                   -0.132698092690
 (T+) correction [au]:                                   -0.132696293991
 CCSD(T) correlation energy [au]:                        -3.362704191111
 CCSD(T) correlation energy + MP2 correction [au]:       -3.362857405553
 CCSD(T+) correlation en. + MP2 + PPL corr. [au]:        -3.362850774061
 Total CCSD(T) energy [au]:                            -788.058813669709
 Total CCSD(T) energy + MP2 correction [au]:           -788.058966884152
 Total CCSD(T+) energy + MP2 + PPL corr. [au]:         -788.058960252660
 
 CPU time [min]:   519.809                   Wall time [min]:    28.584
 
 ************************ 2022-11-12 10:12:09 *************************
                      Normal termination of mrcc.
 **********************************************************************
