 **********************************************************************
                          MRCC program system
 **********************************************************************
 
                              Written by
     Mihaly Kallay, Peter R. Nagy, David Mester, Laszlo Gyevi-Nagy,
        Jozsef Csoka, P. Bernat Szabo, Zoltan Rolik, Gyula Samu,
     Jozsef Csontos, Bence Hegely, Adam Ganyecz, Istvan Ladjanszki,
       Lorant Szegedy, Bence Ladoczki, Klara Petrov, Mate Farkas,
                    Pal D. Mezei, and Reka A. Horvath
 
        Department of Physical Chemistry and Materials Science
            Budapest University of Technology and Economics
                  Budapest P.O.Box 91, H-1521 Hungary
 
                              www.mrcc.hu
 
                      Release date: March 18, 2022

 ************************ 2023-02-14 23:36:30 *************************
 Executing minp...

 Reading input from MINP...
 
 Input file:
 
calc=LB2PLYP
verbosity=3
mem=220GB
symm=off
unit=angs
scfiguess=small
scfalg=locfit1
lcorthr=normal
bpedo=0.99999
ECP=MCDHF-ECP-60
basis=bse_ACVTZ
basis_sm=def2-SVP
dfbasis_scf=def2-QZVPP-RI-JK
dfbasis_cor=bse_ACVTZ_mp2fit
core=0
unit=angs
geom=xyz
4
Au4_2
Au    -0.92626948     2.45836587    -0.11211682
Au    -1.16527394    -2.45836587    -1.02476499
Au    -0.49986185    -0.16792159    -0.25822955
Au     1.16527394     1.46901486     1.02476499

ghost=serialno


 
 
 Checking keyword combinations...
 
 Keywords:
 
 active=none
 agrid=ld0006-ld0590
 agrid_pssp=ld0006-ld0194
 agrid_pssp_sm=ld0006-ld0074
 basis=bse_acvtz
 basis_sm=def2-svp
 basopt=off
 bfbasis=none
 bfgsmem=10
 bfgstol=1.0d-3
 bpcompo=0.985
 bpcompv=0.98
 bpdfo=0.985
 bpocc=0.99999
 bppdo=0.999d0
 bppdv=0.98
 bpedo=0.99999
 bpedv=0.995d0
 calc=mp2
 ccmaxit=50
 ccprog=mrcc
 ccsdalg=disk
 ccsdmkl=seq
 ccsdrest=off
 ccsdthreads=2
 cctol=5
 charge=0
 cialg=direct
 ciguess=off
 cmpgrp=auto
 comprest=off
 core=corr
 corembed=off
 csapprox=off
 cvs=off
 dboc=off
 delocsomofact=
 dendec=cholesky
 dens=0
 dfalg=lineq
 dfbasis_cab=none
 dfbasis_cor=bse_acvtz_mp2fit
 dfbasis_scf=def2-qzvpp-ri-jk
 dfbasis_scf_sm=def2-qzvpp-ri-jk
 dfintran=drpa
 dft=b2plyp
 dhexc=adc(2)
 diag=david
 docc=
 domrad=10.d0
 drpaalg=auto
 dual=off
 dual_df=off
 ecp=mcdhf-ecp-60
 edisp=off
 edisp_embed=off
 embed=off
 etemp=300
 epert=none
 eps=
 espcharge=off
 excrad=1.0
 excrad_fin=0.100000000D-02
 fitting=coulomb
 fmm=off
 fmmord=8
 freq=off
 gamma=1.d0
 gauss=spher
 geom=xyz
 gopt=off
 ghost=serialno
 gtol=7
 grdens=off
 gridbatch_cos=2000
 grtol=10
 guido_ct=off
 hamilton=dc
 iface=none
 intalg=auto
 itol=10
 laptol=1.d-2
 lccoporder=trffirst
 lcorthr=normal
 lccrest=off
 lmp2dens=on
 lnoepso=0.d0
 lnoepsv=1e-6
 boysalg=jacobi
 localcc=2021
 localcorrsymm=off
 locintrf=directai
 mact=
 maxact=off
 maxdim=100
 maxex=0
 maxmicroit=100
 mcscfiguess=hf
 mem=220gb
 mmprog=
 molden=on
 mpitasks=1
 mulmet=3
 mult=
 nacto=0
 nactv=0
 naf_amp=1.d-2
 naf_cor=off
 naf_scf=off
 nafalg=albe
 naftyp=
 nchol=auto
 ndeps=1e-3
 nstate=1
 nsing=0
 nto=off
 ntrip=0
 occ=
 occri=off
 oniom=off
 oniom_eechg=off
 oniom_pcm=off
 oniom_qcorr=off
 optalg=
 optmaxit=50
 optetol=1e-6
 optex=0
 optgtol=1e-4
 optstol=1e-3
 orblocc=boys
 orbloce=off
 orbloco=boys
 orblocv=pao
 orblocguess=cholesky
 osveps=-1.d0
 ovirt=off
 ovltol=1e-7
 ovosnorb=80.0
 pcm=off
 popul=off
 pressure=100000
 pssp=off
 ptfreq=0.0
 ptthreads=2
 qro=off
 qscf=off
 qmmm=off
 redcost_exc=off
 redcost_tddft=0.985d0
 refdet=none
 rest=0
 rgrid=log3
 rism=off
 rohfcore=standard
 rohftype=semicanonical
 scfalg=locfit1
 scf_conv=difficult
 scfdamp=0.7d0
 scfdamp_mode=1
 scfdamp_end=3
 scfdamp_dampstep=0.d0
 scfdamp_dtol=0.0d0
 scfdamp_maxfact=0.7d0
 scfdamp_minfact=0.7d0
 scfdiis=on
 scfdiis_dtol=0.0d0
 scfdiis_end=50
 scfdiis_start=2
 scfdiis_step=1
 scfdiis_watch=off
 scfdiis_wrange=10
 scfdiis_wlimit=5
 scfdiis_delmax=2
 scfdtol=7
 scfext=10
 scfguessdens=
 scfiguess=small
 scfloc=pm
 scflshift=0.20
 scflshift_end=8
 scflshift_dtol=0.0
 scflshift_gaptol=0.20
 scfmaxit=50
 scftype=
 scftol=6
 scspe=1.d0
 scsph=1.d0
 scsps=1.2d0
 scsps_t=1.2d0
 scspt=0.33333333333333
 scspt_t=0.33333333333333
 scspv=1.d0
 spairtol=-1.d0
 sqmprog=
 subminp=top
 symm=0
 talg=lapl
 temp=298.15
 test=off
 theodore=off
 tlmo=0.999
 tpao=0.94
 tprint=off
 uncontract=off
 unit=angs
 usedisk=2
 verbosity=3
 wpairtol=1.d-5
 
 Calculating integrals for small-basis SCF...

 ************************ 2023-02-14 23:36:31 *************************
 Executing integ...

 Allocation of 220.0 Gbytes of memory...
 
 
 Number of atoms:                  4
 Charge:                           0
 Number of electrons:             76
 Number of core electrons:         0
 Spin multiplicity:                1
 
                 Cartesian coordinates [bohr]      Atomic mass [AMU]  Z
   1  Au   -1.75039564    4.64563821   -0.21187008   196.966543      79
   2  Au   -2.20204861   -4.64563821   -1.93652517   196.966543      79
   3  Au   -0.94460200   -0.31732582   -0.48798313   196.966543      79
   4  Au    2.20204861    2.77603576    1.93652517   196.966543      79
 
 This molecule is an asymmetric top.
 This molecule is planar.
 
 Point group: C1  
 Computational point group: C1  
 
 Cartesian coordinates in standard orientation [bohr]
   1  Au    3.38789614   -2.43543288    0.00017458
   2  Au   -5.75410460   -0.00026027    0.00032486
   3  Au   -1.01979016   -0.00050896   -0.00067386
   4  Au    3.38599862    2.43620211    0.00017442
 
 Nuclear repulsion energy [au]:        370.067886072357
 
 
 Basis set information:
 
 Maximum angular momentum: i
 Maximum number of contracted Gaussians:   13
 Maximum number of primitive Gaussians:    13
 Spherical harmonic GTOs are used.
 
 
 Conventional basis set:
 
   1  Au def2-svp [ 7s 6p 5d 1f | 6s 3p 2d 1f ]
   2  Au def2-svp [ 7s 6p 5d 1f | 6s 3p 2d 1f ]
   3  Au def2-svp [ 7s 6p 5d 1f | 6s 3p 2d 1f ]
   4  Au def2-svp [ 7s 6p 5d 1f | 6s 3p 2d 1f ]
 
 Basis functions:
            1             2             3             4             5             6             7             8             9            10
    0    1Au1s         1Au2s         1Au3s         1Au4s         1Au5s         1Au6s         1Au1pz        1Au1py        1Au1px        1Au2pz    
    1    1Au2py        1Au2px        1Au3pz        1Au3py        1Au3px        1Au1d-2       1Au1d-1       1Au1d0        1Au1d+1       1Au1d+2   
    2    1Au2d-2       1Au2d-1       1Au2d0        1Au2d+1       1Au2d+2       1Au1f-3       1Au1f-2       1Au1f-1       1Au1f0        1Au1f+1   
    3    1Au1f+2       1Au1f+3       2Au1s         2Au2s         2Au3s         2Au4s         2Au5s         2Au6s         2Au1pz        2Au1py    
    4    2Au1px        2Au2pz        2Au2py        2Au2px        2Au3pz        2Au3py        2Au3px        2Au1d-2       2Au1d-1       2Au1d0    
    5    2Au1d+1       2Au1d+2       2Au2d-2       2Au2d-1       2Au2d0        2Au2d+1       2Au2d+2       2Au1f-3       2Au1f-2       2Au1f-1   
    6    2Au1f0        2Au1f+1       2Au1f+2       2Au1f+3       3Au1s         3Au2s         3Au3s         3Au4s         3Au5s         3Au6s     
    7    3Au1pz        3Au1py        3Au1px        3Au2pz        3Au2py        3Au2px        3Au3pz        3Au3py        3Au3px        3Au1d-2   
    8    3Au1d-1       3Au1d0        3Au1d+1       3Au1d+2       3Au2d-2       3Au2d-1       3Au2d0        3Au2d+1       3Au2d+2       3Au1f-3   
    9    3Au1f-2       3Au1f-1       3Au1f0        3Au1f+1       3Au1f+2       3Au1f+3       4Au1s         4Au2s         4Au3s         4Au4s     
   10    4Au5s         4Au6s         4Au1pz        4Au1py        4Au1px        4Au2pz        4Au2py        4Au2px        4Au3pz        4Au3py    
   11    4Au3px        4Au1d-2       4Au1d-1       4Au1d0        4Au1d+1       4Au1d+2       4Au2d-2       4Au2d-1       4Au2d0        4Au2d+1   
   12    4Au2d+2       4Au1f-3       4Au1f-2       4Au1f-1       4Au1f0        4Au1f+1       4Au1f+2       4Au1f+3   
 
 Maximum number of basis functions per shell:   10
 Total number of basis functions:    128
 
 
 Fitting basis set for the SCF calculation:
 
   1  Au def2-qzvpp-ri-jk [ 13s 12p 11d 9f 5g 3h 2i | 13s 11p 10d 8f 4g 3h 2i ]
   2  Au def2-qzvpp-ri-jk [ 13s 12p 11d 9f 5g 3h 2i | 13s 11p 10d 8f 4g 3h 2i ]
   3  Au def2-qzvpp-ri-jk [ 13s 12p 11d 9f 5g 3h 2i | 13s 11p 10d 8f 4g 3h 2i ]
   4  Au def2-qzvpp-ri-jk [ 13s 12p 11d 9f 5g 3h 2i | 13s 11p 10d 8f 4g 3h 2i ]
 
 Basis functions:
            1             2             3             4             5             6             7             8             9            10
    0    1Au1s         1Au2s         1Au3s         1Au4s         1Au5s         1Au6s         1Au7s         1Au8s         1Au9s         1Au10s    
    1    1Au11s        1Au12s        1Au13s        1Au1pz        1Au1py        1Au1px        1Au2pz        1Au2py        1Au2px        1Au3pz    
    2    1Au3py        1Au3px        1Au4pz        1Au4py        1Au4px        1Au5pz        1Au5py        1Au5px        1Au6pz        1Au6py    
    3    1Au6px        1Au7pz        1Au7py        1Au7px        1Au8pz        1Au8py        1Au8px        1Au9pz        1Au9py        1Au9px    
    4    1Au10pz       1Au10py       1Au10px       1Au11pz       1Au11py       1Au11px       1Au1d-2       1Au1d-1       1Au1d0        1Au1d+1   
    5    1Au1d+2       1Au2d-2       1Au2d-1       1Au2d0        1Au2d+1       1Au2d+2       1Au3d-2       1Au3d-1       1Au3d0        1Au3d+1   
    6    1Au3d+2       1Au4d-2       1Au4d-1       1Au4d0        1Au4d+1       1Au4d+2       1Au5d-2       1Au5d-1       1Au5d0        1Au5d+1   
    7    1Au5d+2       1Au6d-2       1Au6d-1       1Au6d0        1Au6d+1       1Au6d+2       1Au7d-2       1Au7d-1       1Au7d0        1Au7d+1   
    8    1Au7d+2       1Au8d-2       1Au8d-1       1Au8d0        1Au8d+1       1Au8d+2       1Au9d-2       1Au9d-1       1Au9d0        1Au9d+1   
    9    1Au9d+2       1Au10d-2      1Au10d-1      1Au10d0       1Au10d+1      1Au10d+2      1Au1f-3       1Au1f-2       1Au1f-1       1Au1f0    
   10    1Au1f+1       1Au1f+2       1Au1f+3       1Au2f-3       1Au2f-2       1Au2f-1       1Au2f0        1Au2f+1       1Au2f+2       1Au2f+3   
   11    1Au3f-3       1Au3f-2       1Au3f-1       1Au3f0        1Au3f+1       1Au3f+2       1Au3f+3       1Au4f-3       1Au4f-2       1Au4f-1   
   12    1Au4f0        1Au4f+1       1Au4f+2       1Au4f+3       1Au5f-3       1Au5f-2       1Au5f-1       1Au5f0        1Au5f+1       1Au5f+2   
   13    1Au5f+3       1Au6f-3       1Au6f-2       1Au6f-1       1Au6f0        1Au6f+1       1Au6f+2       1Au6f+3       1Au7f-3       1Au7f-2   
   14    1Au7f-1       1Au7f0        1Au7f+1       1Au7f+2       1Au7f+3       1Au8f-3       1Au8f-2       1Au8f-1       1Au8f0        1Au8f+1   
   15    1Au8f+2       1Au8f+3       1Au1g-4       1Au1g-3       1Au1g-2       1Au1g-1       1Au1g0        1Au1g+1       1Au1g+2       1Au1g+3   
   16    1Au1g+4       1Au2g-4       1Au2g-3       1Au2g-2       1Au2g-1       1Au2g0        1Au2g+1       1Au2g+2       1Au2g+3       1Au2g+4   
   17    1Au3g-4       1Au3g-3       1Au3g-2       1Au3g-1       1Au3g0        1Au3g+1       1Au3g+2       1Au3g+3       1Au3g+4       1Au4g-4   
   18    1Au4g-3       1Au4g-2       1Au4g-1       1Au4g0        1Au4g+1       1Au4g+2       1Au4g+3       1Au4g+4       1Au1h-5       1Au1h-4   
   19    1Au1h-3       1Au1h-2       1Au1h-1       1Au1h0        1Au1h+1       1Au1h+2       1Au1h+3       1Au1h+4       1Au1h+5       1Au2h-5   
   20    1Au2h-4       1Au2h-3       1Au2h-2       1Au2h-1       1Au2h0        1Au2h+1       1Au2h+2       1Au2h+3       1Au2h+4       1Au2h+5   
   21    1Au3h-5       1Au3h-4       1Au3h-3       1Au3h-2       1Au3h-1       1Au3h0        1Au3h+1       1Au3h+2       1Au3h+3       1Au3h+4   
   22    1Au3h+5       1Au1i-6       1Au1i-5       1Au1i-4       1Au1i-3       1Au1i-2       1Au1i-1       1Au1i0        1Au1i+1       1Au1i+2   
   23    1Au1i+3       1Au1i+4       1Au1i+5       1Au1i+6       1Au2i-6       1Au2i-5       1Au2i-4       1Au2i-3       1Au2i-2       1Au2i-1   
   24    1Au2i0        1Au2i+1       1Au2i+2       1Au2i+3       1Au2i+4       1Au2i+5       1Au2i+6       2Au1s         2Au2s         2Au3s     
   25    2Au4s         2Au5s         2Au6s         2Au7s         2Au8s         2Au9s         2Au10s        2Au11s        2Au12s        2Au13s    
   26    2Au1pz        2Au1py        2Au1px        2Au2pz        2Au2py        2Au2px        2Au3pz        2Au3py        2Au3px        2Au4pz    
   27    2Au4py        2Au4px        2Au5pz        2Au5py        2Au5px        2Au6pz        2Au6py        2Au6px        2Au7pz        2Au7py    
   28    2Au7px        2Au8pz        2Au8py        2Au8px        2Au9pz        2Au9py        2Au9px        2Au10pz       2Au10py       2Au10px   
   29    2Au11pz       2Au11py       2Au11px       2Au1d-2       2Au1d-1       2Au1d0        2Au1d+1       2Au1d+2       2Au2d-2       2Au2d-1   
   30    2Au2d0        2Au2d+1       2Au2d+2       2Au3d-2       2Au3d-1       2Au3d0        2Au3d+1       2Au3d+2       2Au4d-2       2Au4d-1   
   31    2Au4d0        2Au4d+1       2Au4d+2       2Au5d-2       2Au5d-1       2Au5d0        2Au5d+1       2Au5d+2       2Au6d-2       2Au6d-1   
   32    2Au6d0        2Au6d+1       2Au6d+2       2Au7d-2       2Au7d-1       2Au7d0        2Au7d+1       2Au7d+2       2Au8d-2       2Au8d-1   
   33    2Au8d0        2Au8d+1       2Au8d+2       2Au9d-2       2Au9d-1       2Au9d0        2Au9d+1       2Au9d+2       2Au10d-2      2Au10d-1  
   34    2Au10d0       2Au10d+1      2Au10d+2      2Au1f-3       2Au1f-2       2Au1f-1       2Au1f0        2Au1f+1       2Au1f+2       2Au1f+3   
   35    2Au2f-3       2Au2f-2       2Au2f-1       2Au2f0        2Au2f+1       2Au2f+2       2Au2f+3       2Au3f-3       2Au3f-2       2Au3f-1   
   36    2Au3f0        2Au3f+1       2Au3f+2       2Au3f+3       2Au4f-3       2Au4f-2       2Au4f-1       2Au4f0        2Au4f+1       2Au4f+2   
   37    2Au4f+3       2Au5f-3       2Au5f-2       2Au5f-1       2Au5f0        2Au5f+1       2Au5f+2       2Au5f+3       2Au6f-3       2Au6f-2   
   38    2Au6f-1       2Au6f0        2Au6f+1       2Au6f+2       2Au6f+3       2Au7f-3       2Au7f-2       2Au7f-1       2Au7f0        2Au7f+1   
   39    2Au7f+2       2Au7f+3       2Au8f-3       2Au8f-2       2Au8f-1       2Au8f0        2Au8f+1       2Au8f+2       2Au8f+3       2Au1g-4   
   40    2Au1g-3       2Au1g-2       2Au1g-1       2Au1g0        2Au1g+1       2Au1g+2       2Au1g+3       2Au1g+4       2Au2g-4       2Au2g-3   
   41    2Au2g-2       2Au2g-1       2Au2g0        2Au2g+1       2Au2g+2       2Au2g+3       2Au2g+4       2Au3g-4       2Au3g-3       2Au3g-2   
   42    2Au3g-1       2Au3g0        2Au3g+1       2Au3g+2       2Au3g+3       2Au3g+4       2Au4g-4       2Au4g-3       2Au4g-2       2Au4g-1   
   43    2Au4g0        2Au4g+1       2Au4g+2       2Au4g+3       2Au4g+4       2Au1h-5       2Au1h-4       2Au1h-3       2Au1h-2       2Au1h-1   
   44    2Au1h0        2Au1h+1       2Au1h+2       2Au1h+3       2Au1h+4       2Au1h+5       2Au2h-5       2Au2h-4       2Au2h-3       2Au2h-2   
   45    2Au2h-1       2Au2h0        2Au2h+1       2Au2h+2       2Au2h+3       2Au2h+4       2Au2h+5       2Au3h-5       2Au3h-4       2Au3h-3   
   46    2Au3h-2       2Au3h-1       2Au3h0        2Au3h+1       2Au3h+2       2Au3h+3       2Au3h+4       2Au3h+5       2Au1i-6       2Au1i-5   
   47    2Au1i-4       2Au1i-3       2Au1i-2       2Au1i-1       2Au1i0        2Au1i+1       2Au1i+2       2Au1i+3       2Au1i+4       2Au1i+5   
   48    2Au1i+6       2Au2i-6       2Au2i-5       2Au2i-4       2Au2i-3       2Au2i-2       2Au2i-1       2Au2i0        2Au2i+1       2Au2i+2   
   49    2Au2i+3       2Au2i+4       2Au2i+5       2Au2i+6       3Au1s         3Au2s         3Au3s         3Au4s         3Au5s         3Au6s     
   50    3Au7s         3Au8s         3Au9s         3Au10s        3Au11s        3Au12s        3Au13s        3Au1pz        3Au1py        3Au1px    
   51    3Au2pz        3Au2py        3Au2px        3Au3pz        3Au3py        3Au3px        3Au4pz        3Au4py        3Au4px        3Au5pz    
   52    3Au5py        3Au5px        3Au6pz        3Au6py        3Au6px        3Au7pz        3Au7py        3Au7px        3Au8pz        3Au8py    
   53    3Au8px        3Au9pz        3Au9py        3Au9px        3Au10pz       3Au10py       3Au10px       3Au11pz       3Au11py       3Au11px   
   54    3Au1d-2       3Au1d-1       3Au1d0        3Au1d+1       3Au1d+2       3Au2d-2       3Au2d-1       3Au2d0        3Au2d+1       3Au2d+2   
   55    3Au3d-2       3Au3d-1       3Au3d0        3Au3d+1       3Au3d+2       3Au4d-2       3Au4d-1       3Au4d0        3Au4d+1       3Au4d+2   
   56    3Au5d-2       3Au5d-1       3Au5d0        3Au5d+1       3Au5d+2       3Au6d-2       3Au6d-1       3Au6d0        3Au6d+1       3Au6d+2   
   57    3Au7d-2       3Au7d-1       3Au7d0        3Au7d+1       3Au7d+2       3Au8d-2       3Au8d-1       3Au8d0        3Au8d+1       3Au8d+2   
   58    3Au9d-2       3Au9d-1       3Au9d0        3Au9d+1       3Au9d+2       3Au10d-2      3Au10d-1      3Au10d0       3Au10d+1      3Au10d+2  
   59    3Au1f-3       3Au1f-2       3Au1f-1       3Au1f0        3Au1f+1       3Au1f+2       3Au1f+3       3Au2f-3       3Au2f-2       3Au2f-1   
   60    3Au2f0        3Au2f+1       3Au2f+2       3Au2f+3       3Au3f-3       3Au3f-2       3Au3f-1       3Au3f0        3Au3f+1       3Au3f+2   
   61    3Au3f+3       3Au4f-3       3Au4f-2       3Au4f-1       3Au4f0        3Au4f+1       3Au4f+2       3Au4f+3       3Au5f-3       3Au5f-2   
   62    3Au5f-1       3Au5f0        3Au5f+1       3Au5f+2       3Au5f+3       3Au6f-3       3Au6f-2       3Au6f-1       3Au6f0        3Au6f+1   
   63    3Au6f+2       3Au6f+3       3Au7f-3       3Au7f-2       3Au7f-1       3Au7f0        3Au7f+1       3Au7f+2       3Au7f+3       3Au8f-3   
   64    3Au8f-2       3Au8f-1       3Au8f0        3Au8f+1       3Au8f+2       3Au8f+3       3Au1g-4       3Au1g-3       3Au1g-2       3Au1g-1   
   65    3Au1g0        3Au1g+1       3Au1g+2       3Au1g+3       3Au1g+4       3Au2g-4       3Au2g-3       3Au2g-2       3Au2g-1       3Au2g0    
   66    3Au2g+1       3Au2g+2       3Au2g+3       3Au2g+4       3Au3g-4       3Au3g-3       3Au3g-2       3Au3g-1       3Au3g0        3Au3g+1   
   67    3Au3g+2       3Au3g+3       3Au3g+4       3Au4g-4       3Au4g-3       3Au4g-2       3Au4g-1       3Au4g0        3Au4g+1       3Au4g+2   
   68    3Au4g+3       3Au4g+4       3Au1h-5       3Au1h-4       3Au1h-3       3Au1h-2       3Au1h-1       3Au1h0        3Au1h+1       3Au1h+2   
   69    3Au1h+3       3Au1h+4       3Au1h+5       3Au2h-5       3Au2h-4       3Au2h-3       3Au2h-2       3Au2h-1       3Au2h0        3Au2h+1   
   70    3Au2h+2       3Au2h+3       3Au2h+4       3Au2h+5       3Au3h-5       3Au3h-4       3Au3h-3       3Au3h-2       3Au3h-1       3Au3h0    
   71    3Au3h+1       3Au3h+2       3Au3h+3       3Au3h+4       3Au3h+5       3Au1i-6       3Au1i-5       3Au1i-4       3Au1i-3       3Au1i-2   
   72    3Au1i-1       3Au1i0        3Au1i+1       3Au1i+2       3Au1i+3       3Au1i+4       3Au1i+5       3Au1i+6       3Au2i-6       3Au2i-5   
   73    3Au2i-4       3Au2i-3       3Au2i-2       3Au2i-1       3Au2i0        3Au2i+1       3Au2i+2       3Au2i+3       3Au2i+4       3Au2i+5   
   74    3Au2i+6       4Au1s         4Au2s         4Au3s         4Au4s         4Au5s         4Au6s         4Au7s         4Au8s         4Au9s     
   75    4Au10s        4Au11s        4Au12s        4Au13s        4Au1pz        4Au1py        4Au1px        4Au2pz        4Au2py        4Au2px    
   76    4Au3pz        4Au3py        4Au3px        4Au4pz        4Au4py        4Au4px        4Au5pz        4Au5py        4Au5px        4Au6pz    
   77    4Au6py        4Au6px        4Au7pz        4Au7py        4Au7px        4Au8pz        4Au8py        4Au8px        4Au9pz        4Au9py    
   78    4Au9px        4Au10pz       4Au10py       4Au10px       4Au11pz       4Au11py       4Au11px       4Au1d-2       4Au1d-1       4Au1d0    
   79    4Au1d+1       4Au1d+2       4Au2d-2       4Au2d-1       4Au2d0        4Au2d+1       4Au2d+2       4Au3d-2       4Au3d-1       4Au3d0    
   80    4Au3d+1       4Au3d+2       4Au4d-2       4Au4d-1       4Au4d0        4Au4d+1       4Au4d+2       4Au5d-2       4Au5d-1       4Au5d0    
   81    4Au5d+1       4Au5d+2       4Au6d-2       4Au6d-1       4Au6d0        4Au6d+1       4Au6d+2       4Au7d-2       4Au7d-1       4Au7d0    
   82    4Au7d+1       4Au7d+2       4Au8d-2       4Au8d-1       4Au8d0        4Au8d+1       4Au8d+2       4Au9d-2       4Au9d-1       4Au9d0    
   83    4Au9d+1       4Au9d+2       4Au10d-2      4Au10d-1      4Au10d0       4Au10d+1      4Au10d+2      4Au1f-3       4Au1f-2       4Au1f-1   
   84    4Au1f0        4Au1f+1       4Au1f+2       4Au1f+3       4Au2f-3       4Au2f-2       4Au2f-1       4Au2f0        4Au2f+1       4Au2f+2   
   85    4Au2f+3       4Au3f-3       4Au3f-2       4Au3f-1       4Au3f0        4Au3f+1       4Au3f+2       4Au3f+3       4Au4f-3       4Au4f-2   
   86    4Au4f-1       4Au4f0        4Au4f+1       4Au4f+2       4Au4f+3       4Au5f-3       4Au5f-2       4Au5f-1       4Au5f0        4Au5f+1   
   87    4Au5f+2       4Au5f+3       4Au6f-3       4Au6f-2       4Au6f-1       4Au6f0        4Au6f+1       4Au6f+2       4Au6f+3       4Au7f-3   
   88    4Au7f-2       4Au7f-1       4Au7f0        4Au7f+1       4Au7f+2       4Au7f+3       4Au8f-3       4Au8f-2       4Au8f-1       4Au8f0    
   89    4Au8f+1       4Au8f+2       4Au8f+3       4Au1g-4       4Au1g-3       4Au1g-2       4Au1g-1       4Au1g0        4Au1g+1       4Au1g+2   
   90    4Au1g+3       4Au1g+4       4Au2g-4       4Au2g-3       4Au2g-2       4Au2g-1       4Au2g0        4Au2g+1       4Au2g+2       4Au2g+3   
   91    4Au2g+4       4Au3g-4       4Au3g-3       4Au3g-2       4Au3g-1       4Au3g0        4Au3g+1       4Au3g+2       4Au3g+3       4Au3g+4   
   92    4Au4g-4       4Au4g-3       4Au4g-2       4Au4g-1       4Au4g0        4Au4g+1       4Au4g+2       4Au4g+3       4Au4g+4       4Au1h-5   
   93    4Au1h-4       4Au1h-3       4Au1h-2       4Au1h-1       4Au1h0        4Au1h+1       4Au1h+2       4Au1h+3       4Au1h+4       4Au1h+5   
   94    4Au2h-5       4Au2h-4       4Au2h-3       4Au2h-2       4Au2h-1       4Au2h0        4Au2h+1       4Au2h+2       4Au2h+3       4Au2h+4   
   95    4Au2h+5       4Au3h-5       4Au3h-4       4Au3h-3       4Au3h-2       4Au3h-1       4Au3h0        4Au3h+1       4Au3h+2       4Au3h+3   
   96    4Au3h+4       4Au3h+5       4Au1i-6       4Au1i-5       4Au1i-4       4Au1i-3       4Au1i-2       4Au1i-1       4Au1i0        4Au1i+1   
   97    4Au1i+2       4Au1i+3       4Au1i+4       4Au1i+5       4Au1i+6       4Au2i-6       4Au2i-5       4Au2i-4       4Au2i-3       4Au2i-2   
   98    4Au2i-1       4Au2i0        4Au2i+1       4Au2i+2       4Au2i+3       4Au2i+4       4Au2i+5       4Au2i+6   
 
 Maximum number of basis functions per shell:   56
 Total number of basis functions:    988
 
 
 Effective core potentials:
 
   1  Au mcdhf-ecp-60        
   2  Au mcdhf-ecp-60        
   3  Au mcdhf-ecp-60        
   4  Au mcdhf-ecp-60        
 
 Initializing the SAD routines for the initial guess...
 Checking the files required for the initial guess...
 Density files have not been found for the initial guess.
 Generating SCFDENSITIES.Au.def2-svp.0
 CPU time [min]:     0.117                   Wall time [min]:     0.222
 
 Character table for point group C1:
 
          E  
    A     1
 
 Number of basis functions per irrep:
    A     128
 
 
 Density functional: B2PLYP
 Constructing integration grid for DFT...
 Angular integration grid: adaptive 590-point Lebedev quadrature
 Radial integration grid: Log3 quadrature
 Total number of grid points: 78043       
 CPU time [min]:     0.906                   Wall time [min]:     0.246
 
 Calculation of overlap integrals...
 CPU time [min]:     0.909                   Wall time [min]:     0.246
 
 Calculation of the square root of the overlap matrix...
 Minimum eigenvalue of the overlap matrix: 0.302392E-02
 CPU time [min]:     0.982                   Wall time [min]:     0.250
 
 Calculation of kinetic energy integrals...
 CPU time [min]:     0.983                   Wall time [min]:     0.250
 Calculation of dipole moment integrals...
 CPU time [min]:     0.985                   Wall time [min]:     0.250
 Calculation of nuclear attraction integrals...
 CPU time [min]:     0.987                   Wall time [min]:     0.250
 Calculation of core potential integrals...
 CPU time [min]:     1.201                   Wall time [min]:     0.354
 
 Calculation of prescreening integrals...
 CPU time [min]:     1.349                   Wall time [min]:     0.359
 
 Calculation of two-center Coulomb integrals...
   1% done.
  12% done.
  25% done.
  36% done.
  48% done.
  63% done.
  82% done.
  95% done.
 100% done.
 CPU time [min]:     1.662                   Wall time [min]:     0.369
 
 Cholesky decomposition of the two-center matrix...
 Reciprocal of the condition number:  0.240922E-05
 CPU time [min]:     1.712                   Wall time [min]:     0.371
 
 
 Running small-basis SCF...

 ************************ 2023-02-14 23:36:54 *************************
 Executing scf...

 @scfsetup: integrals calculated directly
            mrcc/integ direct run
 @scfsetup: calculating on full matrices
            not using symmetry adapted basis
 @scfsetup: diis switched on
 @scfsetup: number of steps to extrapolate from  10
 @scfsetup: tolerance in energy deviation    0.100000E-05
            tolerance in density deviation    0.100000E-06
 @scfsetup: maximum number of iterations:  50
 @scfsetup: restricted closed shell hf calc
 @scfsetup: starting scf from superposition of atomic densities
 @scfsetup: occupation set:
            from initial orbitals
 @scfsetup: Parameter-set for SCF acceleration: difficult
 @scfsetup: diis runs from iteration:   2
 @scfsetup: diis runs to iteration:  50
 @scfsetup: diis runs in every iteration
 @scfsetup: diiswatch is disabled                   
 @scfsetup: diis dtol criteria to switch on:      0.0000E+00
           (or the iteration number below is reached)
 @scfsetup: static damping scheme
            iteration step criteria to turn damping off: 3
 @scfsetup: dynamic level shifting
            tolarance in HOMO-LUMO gap:  0.200
            tolarance in density deviation:     0.0000E+00
            iteration step criteria to turn level shifting off: 8
 Allocation of 220.0 Gbytes of memory...
 ======================================================================
 ITERATION STEP   1
 CPU time [min]:     0.137                   Wall time [min]:     0.010
 

 SCF control                  : initial
 Damping factor/level shift   : 0.700/0.200
 DIIS [start/end/frequency]   :   2 / 50 /  1

 Constructing Fock-matrix...
 
 Pipek-Mezey localization...
 Step  Convergence
   1   3.539405166822
   2   2.223576858107
   3   0.028218863595
   4   0.000009168808
   5   0.000000006916
 CPU time [min]:     0.185                   Wall time [min]:     0.021
 
 Constructing local fitting domains...
 Maximum number of atoms in fitting domains:    4
 Average number of atoms in fitting domains:    4.0
 
 First step of Coulomb + first step of exchange...
 Exchange contribution is evaluated for MOs 1 to 38.
   1% done.
  14% done.
  25% done.
  38% done.
  49% done.
  64% done.
  75% done.
  89% done.
 100% done.
 CPU time [min]:     1.388                   Wall time [min]:     0.065
 
 Fitting and assembly step of exchange...
 CPU time [min]:     1.420                   Wall time [min]:     0.066
 
 Second step of Coulomb...
   1% done.
  14% done.
  25% done.
  38% done.
  49% done.
  64% done.
  75% done.
  89% done.
 100% done.
 CPU time [min]:     1.474                   Wall time [min]:     0.067
 
 Calculating the exchange-correlation matrix...
                   0.4700*B88 [au]:    -24.119511753041
                   0.7300*LYP [au]:     -2.055687110043
 Exchange-correlation energy  [au]:    -26.175198863084
 CPU time [min]:     1.903                   Wall time [min]:     0.089
 
 Coulomb energy + HF exchange [au]:    829.923737175778
 Gradient norm:      2.6933E+00
 RMS of [F,P]:                                         0.04274535182694
 RMS of difference density:                            0.01269156241914
 Gap [au]:  0.00752355
 ALPHA OCC:  38
 BETA  OCC:  38
 
 ***KOHN-SHAM ENERGY IN STEP   1 IS          -540.0506396223706815 [AU]
 ======================================================================
 ITERATION STEP   2
 CPU time [min]:     1.935                   Wall time [min]:     0.090
 

 SCF control                  : diis+damping
 Damping factor/level shift   : 0.700/0.200
 DIIS [start/end/frequency]   :   2 / 50 /  1

 Constructing Fock-matrix...
 
 Pipek-Mezey localization...
 Step  Convergence
   1   7.702750978338
   2   3.701402611891
   3   0.856208809341
   4   0.108068995467
   5   0.004905422913
   6   0.000023689520
   7   0.000000870001
 CPU time [min]:     1.963                   Wall time [min]:     0.091
 
 Constructing local fitting domains...
 Maximum number of atoms in fitting domains:    4
 Average number of atoms in fitting domains:    4.0
 
 First step of Coulomb + first step of exchange...
 Exchange contribution is evaluated for MOs 1 to 38.
   1% done.
  14% done.
  25% done.
  38% done.
  49% done.
  64% done.
  75% done.
  89% done.
 100% done.
 CPU time [min]:     2.077                   Wall time [min]:     0.094
 
 Fitting and assembly step of exchange...
 CPU time [min]:     2.095                   Wall time [min]:     0.095
 
 Second step of Coulomb...
   1% done.
  14% done.
  25% done.
  38% done.
  49% done.
  64% done.
  75% done.
  89% done.
 100% done.
 CPU time [min]:     2.133                   Wall time [min]:     0.096
 
 Calculating the exchange-correlation matrix...
                   0.4700*B88 [au]:    -23.498657321848
                   0.7300*LYP [au]:     -2.040044345468
 Exchange-correlation energy  [au]:    -25.538701667316
 CPU time [min]:     2.440                   Wall time [min]:     0.111
 
 Coulomb energy + HF exchange [au]:    818.235947538032
 Gradient norm:      2.8386E-01
 DIIS is running in this iteration step.
 RMS of [F,P]:                                         0.02932634438475
 RMS of difference density:                            0.00486448247635
 Gap [au]:  0.11716945
 ALPHA OCC:  38
 BETA  OCC:  38
 
 ***KOHN-SHAM ENERGY IN STEP   2 IS          -541.0182324437475927 [AU]
 
 Step comparison  Energy Drift [au]  DIIS error drift  Gradient drift
        1            9.6759E-01         1.3419E-02       2.4095E+00
        2            5.4102E+02         1.0000E-07       2.4095E+00
 ======================================================================
 ITERATION STEP   3
 CPU time [min]:     2.452                   Wall time [min]:     0.112
 

 SCF control                  : diis+damping
 Damping factor/level shift   : 0.700/0.200
 DIIS [start/end/frequency]   :   2 / 50 /  1

 Constructing Fock-matrix...
 
 Pipek-Mezey localization...
 Step  Convergence
   1  15.747173154673
   2   3.541751315621
   3   0.615413983254
   4   0.532533109660
   5   0.034533604175
   6   0.103826493527
   7   0.004028846159
   8   0.000193700879
   9   0.000007846687
  10   0.000000394801
 CPU time [min]:     2.475                   Wall time [min]:     0.113
 
 Constructing local fitting domains...
 Local fitting domains are unchanged.
 
 First step of Coulomb + first step of exchange...
 Exchange contribution is evaluated for MOs 1 to 38.
   1% done.
  14% done.
  25% done.
  38% done.
  49% done.
  64% done.
  75% done.
  89% done.
 100% done.
 CPU time [min]:     2.587                   Wall time [min]:     0.116
 
 Fitting and assembly step of exchange...
 CPU time [min]:     2.593                   Wall time [min]:     0.116
 
 Second step of Coulomb...
   1% done.
  14% done.
  25% done.
  38% done.
  49% done.
  64% done.
  75% done.
  89% done.
 100% done.
 CPU time [min]:     2.631                   Wall time [min]:     0.117
 
 Calculating the exchange-correlation matrix...
                   0.4700*B88 [au]:    -23.249273174283
                   0.7300*LYP [au]:     -2.033867818950
 Exchange-correlation energy  [au]:    -25.283140993233
 CPU time [min]:     2.935                   Wall time [min]:     0.133
 
 Coulomb energy + HF exchange [au]:    813.734071241783
 Gradient norm:      6.8743E-02
 DIIS is running in this iteration step.
 RMS of [F,P]:                                         0.02064718493665
 RMS of difference density:                            0.00362032424056
 Gap [au]:  0.13937520
 ALPHA OCC:  38
 BETA  OCC:  38
 
 ***KOHN-SHAM ENERGY IN STEP   3 IS          -541.3024972934947527 [AU]
 
 Step comparison  Energy Drift [au]  DIIS error drift  Gradient drift
        2            2.8426E-01         8.6792E-03       2.1512E-01
 ======================================================================
 ITERATION STEP   4
 CPU time [min]:     2.946                   Wall time [min]:     0.133
 

 SCF control                  : diis
 Damping factor/level shift   : 0.000/0.200
 DIIS [start/end/frequency]   :   2 / 50 /  1

 Constructing Fock-matrix...
 
 Pipek-Mezey localization...
 Step  Convergence
   1   9.811468547004
   2   4.206049232570
   3   0.198129341868
   4   0.009580465843
   5   0.000726028755
   6   0.000101218313
   7   0.000015229234
   8   0.000002234280
   9   0.000000333119
 CPU time [min]:     2.968                   Wall time [min]:     0.134
 
 Constructing local fitting domains...
 Local fitting domains are unchanged.
 
 First step of Coulomb + first step of exchange...
 Exchange contribution is evaluated for MOs 1 to 38.
   1% done.
  14% done.
  25% done.
  38% done.
  49% done.
  64% done.
  75% done.
  89% done.
 100% done.
 CPU time [min]:     3.080                   Wall time [min]:     0.137
 
 Fitting and assembly step of exchange...
 CPU time [min]:     3.086                   Wall time [min]:     0.137
 
 Second step of Coulomb...
   1% done.
  14% done.
  25% done.
  38% done.
  49% done.
  64% done.
  75% done.
  89% done.
 100% done.
 CPU time [min]:     3.125                   Wall time [min]:     0.138
 
 Calculating the exchange-correlation matrix...
                   0.4700*B88 [au]:    -23.081788497550
                   0.7300*LYP [au]:     -2.030754861874
 Exchange-correlation energy  [au]:    -25.112543359424
 CPU time [min]:     3.431                   Wall time [min]:     0.154
 
 Coulomb energy + HF exchange [au]:    813.359899811492
 Gradient norm:      1.7928E-01
 DIIS is running in this iteration step.
 RMS of [F,P]:                                         0.01530835358712
 RMS of difference density:                            0.01196524465263
 Gap [au]:  0.14137861
 ALPHA OCC:  38
 BETA  OCC:  38
 
 ***KOHN-SHAM ENERGY IN STEP   4 IS          -541.1812437670669169 [AU]
 
 Step comparison  Energy Drift [au]  DIIS error drift  Gradient drift
        3           -1.2125E-01         5.3388E-03      -1.1054E-01
 Warning! The energy goes uphill (with respect to previous step).
 Warning! The gradient goes uphill (with respect to previous step).
 Warning! The gradient goes uphill (with respect to step   3 ).
 ======================================================================
 ITERATION STEP   5
 CPU time [min]:     3.466                   Wall time [min]:     0.155
 

 SCF control                  : diis
 Damping factor/level shift   : 0.000/0.200
 DIIS [start/end/frequency]   :   2 / 50 /  1

 Constructing Fock-matrix...
 
 Pipek-Mezey localization...
 Step  Convergence
   1  12.006713369154
   2   3.936602821363
   3   0.947679659175
   4   0.080143376421
   5   0.000542932815
   6   0.000015872052
   7   0.000000567025
 CPU time [min]:     3.496                   Wall time [min]:     0.156
 
 Constructing local fitting domains...
 Local fitting domains are unchanged.
 
 First step of Coulomb + first step of exchange...
 Exchange contribution is evaluated for MOs 1 to 38.
   1% done.
  14% done.
  25% done.
  38% done.
  49% done.
  64% done.
  75% done.
  89% done.
 100% done.
 CPU time [min]:     3.608                   Wall time [min]:     0.159
 
 Fitting and assembly step of exchange...
 CPU time [min]:     3.614                   Wall time [min]:     0.159
 
 Second step of Coulomb...
   1% done.
  14% done.
  25% done.
  38% done.
  49% done.
  64% done.
  75% done.
  89% done.
 100% done.
 CPU time [min]:     3.652                   Wall time [min]:     0.160
 
 Calculating the exchange-correlation matrix...
                   0.4700*B88 [au]:    -22.853570980845
                   0.7300*LYP [au]:     -2.024802980975
 Exchange-correlation energy  [au]:    -24.878373961820
 CPU time [min]:     3.958                   Wall time [min]:     0.176
 
 Coulomb energy + HF exchange [au]:    807.630911429490
 Gradient norm:      3.0307E-02
 DIIS is running in this iteration step.
 RMS of [F,P]:                                         0.00088500203856
 RMS of difference density:                            0.00230776249221
 Gap [au]:  0.13387634
 ALPHA OCC:  38
 BETA  OCC:  38
 
 ***KOHN-SHAM ENERGY IN STEP   5 IS          -541.5937335484081814 [AU]
 
 Step comparison  Energy Drift [au]  DIIS error drift  Gradient drift
        4            4.1249E-01         1.4423E-02       1.4897E-01
 ======================================================================
 ITERATION STEP   6
 CPU time [min]:     3.967                   Wall time [min]:     0.176
 

 SCF control                  : diis
 Damping factor/level shift   : 0.000/0.200
 DIIS [start/end/frequency]   :   2 / 50 /  1

 Constructing Fock-matrix...
 
 Pipek-Mezey localization...
 Step  Convergence
   1  15.006898164552
   2   2.976814119991
   3   0.364284208687
   4   0.174623161761
   5   0.007496401864
   6   0.000031189197
   7   0.000002045022
   8   0.000000185927
 CPU time [min]:     3.989                   Wall time [min]:     0.176
 
 Constructing local fitting domains...
 Local fitting domains are unchanged.
 
 First step of Coulomb + first step of exchange...
 Exchange contribution is evaluated for MOs 1 to 38.
   1% done.
  14% done.
  25% done.
  38% done.
  49% done.
  64% done.
  75% done.
  89% done.
 100% done.
 CPU time [min]:     4.102                   Wall time [min]:     0.180
 
 Fitting and assembly step of exchange...
 CPU time [min]:     4.108                   Wall time [min]:     0.180
 
 Second step of Coulomb...
   1% done.
  14% done.
  25% done.
  38% done.
  49% done.
  64% done.
  75% done.
  89% done.
 100% done.
 CPU time [min]:     4.146                   Wall time [min]:     0.181
 
 Calculating the exchange-correlation matrix...
                   0.4700*B88 [au]:    -22.863620618554
                   0.7300*LYP [au]:     -2.025299536548
 Exchange-correlation energy  [au]:    -24.888920155102
 CPU time [min]:     4.450                   Wall time [min]:     0.197
 
 Coulomb energy + HF exchange [au]:    807.817272399373
 Gradient norm:      1.5081E-02
 DIIS is running in this iteration step.
 RMS of [F,P]:                                         0.00032091005559
 RMS of difference density:                            0.00093440646607
 Gap [au]:  0.13566850
 ALPHA OCC:  38
 BETA  OCC:  38
 
 ***KOHN-SHAM ENERGY IN STEP   6 IS          -541.5969183925474226 [AU]
 
 Step comparison  Energy Drift [au]  DIIS error drift  Gradient drift
        5            3.1848E-03         5.6409E-04       1.5226E-02
 ======================================================================
 ITERATION STEP   7
 CPU time [min]:     4.458                   Wall time [min]:     0.197
 

 SCF control                  : diis
 Damping factor/level shift   : 0.000/0.200
 DIIS [start/end/frequency]   :   2 / 50 /  1

 Constructing Fock-matrix...
 
 Pipek-Mezey localization...
 Step  Convergence
   1  19.708364486938
   2   3.558776095397
   3   1.754196159435
   4   0.135895292340
   5   0.002147871196
   6   0.000118106000
   7   0.000009630993
   8   0.000000905040
   9   0.000000082442
 CPU time [min]:     4.481                   Wall time [min]:     0.197
 
 Constructing local fitting domains...
 Local fitting domains are unchanged.
 
 First step of Coulomb + first step of exchange...
 Exchange contribution is evaluated for MOs 1 to 38.
   1% done.
  14% done.
  25% done.
  38% done.
  49% done.
  64% done.
  75% done.
  89% done.
 100% done.
 CPU time [min]:     4.593                   Wall time [min]:     0.201
 
 Fitting and assembly step of exchange...
 CPU time [min]:     4.598                   Wall time [min]:     0.201
 
 Second step of Coulomb...
   1% done.
  14% done.
  25% done.
  38% done.
  49% done.
  64% done.
  75% done.
  89% done.
 100% done.
 CPU time [min]:     4.637                   Wall time [min]:     0.202
 
 Calculating the exchange-correlation matrix...
                   0.4700*B88 [au]:    -22.869854334838
                   0.7300*LYP [au]:     -2.025646172973
 Exchange-correlation energy  [au]:    -24.895500507811
 CPU time [min]:     4.941                   Wall time [min]:     0.217
 
 Coulomb energy + HF exchange [au]:    808.056091032161
 Gradient norm:      8.2533E-03
 DIIS is running in this iteration step.
 RMS of [F,P]:                                         0.00019735460637
 RMS of difference density:                            0.00043624157235
 Gap [au]:  0.13576922
 ALPHA OCC:  38
 BETA  OCC:  38
 
 ***KOHN-SHAM ENERGY IN STEP   7 IS          -541.5976065121951706 [AU]
 
 Step comparison  Energy Drift [au]  DIIS error drift  Gradient drift
        6            6.8812E-04         1.2356E-04       6.8274E-03
 ======================================================================
 ITERATION STEP   8
 CPU time [min]:     4.949                   Wall time [min]:     0.218
 

 SCF control                  : diis
 Damping factor/level shift   : 0.000/0.200
 DIIS [start/end/frequency]   :   2 / 50 /  1

 Constructing Fock-matrix...
 
 Pipek-Mezey localization...
 Step  Convergence
   1  18.038654368950
   2  10.936768152823
   3   8.793439646350
   4   3.290250495254
   5   1.186254399071
   6   0.093179546552
   7   0.002064413339
   8   0.000036009265
   9   0.000001333497
  10   0.000000022884
  11   0.000000001168
  12   0.000000000029
  13   0.000000000002
  14   0.000000000000
 CPU time [min]:     4.974                   Wall time [min]:     0.218
 
 Constructing local fitting domains...
 Local fitting domains are unchanged.
 
 First step of Coulomb + first step of exchange...
 Exchange contribution is evaluated for MOs 1 to 38.
   1% done.
  14% done.
  25% done.
  38% done.
  49% done.
  64% done.
  75% done.
  89% done.
 100% done.
 CPU time [min]:     5.086                   Wall time [min]:     0.221
 
 Fitting and assembly step of exchange...
 CPU time [min]:     5.091                   Wall time [min]:     0.222
 
 Second step of Coulomb...
   1% done.
  14% done.
  25% done.
  38% done.
  49% done.
  64% done.
  75% done.
  89% done.
 100% done.
 CPU time [min]:     5.130                   Wall time [min]:     0.223
 
 Calculating the exchange-correlation matrix...
                   0.4700*B88 [au]:    -22.870830362280
                   0.7300*LYP [au]:     -2.025686832574
 Exchange-correlation energy  [au]:    -24.896517194855
 CPU time [min]:     5.434                   Wall time [min]:     0.238
 
 Coulomb energy + HF exchange [au]:    808.055883355789
 Gradient norm:      5.4288E-03
 DIIS is running in this iteration step.
 RMS of [F,P]:                                         0.00007084434901
 RMS of difference density:                            0.00022269736234
 Gap [au]:  0.13587866
 ALPHA OCC:  38
 BETA  OCC:  38
 
 ***KOHN-SHAM ENERGY IN STEP   8 IS          -541.5978314297813085 [AU]
 
 Step comparison  Energy Drift [au]  DIIS error drift  Gradient drift
        7            2.2492E-04         1.2651E-04       2.8245E-03
 ======================================================================
 ITERATION STEP   9
 CPU time [min]:     5.443                   Wall time [min]:     0.239
 

 SCF control                  : diis
 Damping factor/level shift   : 0.000/0.000
 DIIS [start/end/frequency]   :   2 / 50 /  1

 Constructing Fock-matrix...
 
 Pipek-Mezey localization...
 Step  Convergence
   1  19.136596986579
   2   6.664613240944
   3   6.417952047998
   4   5.088043217239
   5   1.450279220469
   6   0.257573558755
   7   0.003977744063
   8   0.000157029089
   9   0.000008167951
  10   0.000001050993
  11   0.000000063695
  12   0.000000009353
  13   0.000000000522
  14   0.000000000089
  15   0.000000000004
  16   0.000000000001
 CPU time [min]:     5.469                   Wall time [min]:     0.239
 
 Constructing local fitting domains...
 Local fitting domains are unchanged.
 
 First step of Coulomb + first step of exchange...
 Exchange contribution is evaluated for MOs 1 to 38.
   1% done.
  14% done.
  25% done.
  38% done.
  49% done.
  64% done.
  75% done.
  89% done.
 100% done.
 CPU time [min]:     5.581                   Wall time [min]:     0.243
 
 Fitting and assembly step of exchange...
 CPU time [min]:     5.587                   Wall time [min]:     0.243
 
 Second step of Coulomb...
   1% done.
  14% done.
  25% done.
  38% done.
  49% done.
  64% done.
  75% done.
  89% done.
 100% done.
 CPU time [min]:     5.626                   Wall time [min]:     0.244
 
 Calculating the exchange-correlation matrix...
                   0.4700*B88 [au]:    -22.871313663558
                   0.7300*LYP [au]:     -2.025710851122
 Exchange-correlation energy  [au]:    -24.897024514680
 CPU time [min]:     5.930                   Wall time [min]:     0.259
 
 Coulomb energy + HF exchange [au]:    808.074749141320
 Gradient norm:      3.2604E-03
 DIIS is running in this iteration step.
 RMS of [F,P]:                                         0.00004796500918
 RMS of difference density:                            0.00020517556351
 Gap [au]:  0.13629408
 ALPHA OCC:  38
 BETA  OCC:  38
 
 ***KOHN-SHAM ENERGY IN STEP   9 IS          -541.5979025988920057 [AU]
 
 Step comparison  Energy Drift [au]  DIIS error drift  Gradient drift
        8            7.1169E-05         2.2879E-05       2.1684E-03
 ======================================================================
 ITERATION STEP  10
 CPU time [min]:     5.939                   Wall time [min]:     0.260
 

 SCF control                  : diis
 Damping factor/level shift   : 0.000/0.000
 DIIS [start/end/frequency]   :   2 / 50 /  1

 Constructing Fock-matrix...
 
 Pipek-Mezey localization...
 Step  Convergence
   1  16.148054412223
   2   5.360429241295
   3   3.851191932716
   4   2.543740122517
   5   0.251961349823
   6   0.008198708308
   7   0.000318383881
   8   0.000053091410
   9   0.000003207437
  10   0.000000646723
  11   0.000000044237
  12   0.000000008394
  13   0.000000000633
  14   0.000000000112
  15   0.000000000009
  16   0.000000000002
  17   0.000000000000
 CPU time [min]:     5.965                   Wall time [min]:     0.261
 
 Constructing local fitting domains...
 Local fitting domains are unchanged.
 
 First step of Coulomb + first step of exchange...
 Exchange contribution is evaluated for MOs 1 to 38.
   1% done.
  14% done.
  25% done.
  38% done.
  49% done.
  64% done.
  75% done.
  89% done.
 100% done.
 CPU time [min]:     6.077                   Wall time [min]:     0.264
 
 Fitting and assembly step of exchange...
 CPU time [min]:     6.083                   Wall time [min]:     0.264
 
 Second step of Coulomb...
   1% done.
  14% done.
  25% done.
  38% done.
  49% done.
  64% done.
  75% done.
  89% done.
 100% done.
 CPU time [min]:     6.121                   Wall time [min]:     0.265
 
 Calculating the exchange-correlation matrix...
                   0.4700*B88 [au]:    -22.871450533741
                   0.7300*LYP [au]:     -2.025730229952
 Exchange-correlation energy  [au]:    -24.897180763694
 CPU time [min]:     6.426                   Wall time [min]:     0.281
 
 Coulomb energy + HF exchange [au]:    808.090531741363
 Gradient norm:      7.2398E-04
 DIIS is running in this iteration step.
 RMS of [F,P]:                                         0.00002174088675
 RMS of difference density:                            0.00005669866985
 Gap [au]:  0.13649650
 ALPHA OCC:  38
 BETA  OCC:  38
 
 ***KOHN-SHAM ENERGY IN STEP  10 IS          -541.5979382157890996 [AU]
 
 Step comparison  Energy Drift [au]  DIIS error drift  Gradient drift
        9            3.5617E-05         2.6224E-05       2.5364E-03
 ======================================================================
 ITERATION STEP  11
 CPU time [min]:     6.434                   Wall time [min]:     0.281
 

 SCF control                  : diis
 Damping factor/level shift   : 0.000/0.000
 DIIS [start/end/frequency]   :   2 / 50 /  1

 Constructing Fock-matrix...
 
 Pipek-Mezey localization...
 Step  Convergence
   1  14.823779722496
   2   5.927634891006
   3   8.764958103651
   4   5.486979206049
   5   1.363200549252
   6   0.442030496910
   7   0.025696154156
   8   0.000267418358
   9   0.000026264288
  10   0.000001020770
  11   0.000000120041
  12   0.000000004498
  13   0.000000000622
  14   0.000000000022
  15   0.000000000004
  16   0.000000000000
 CPU time [min]:     6.460                   Wall time [min]:     0.282
 
 Constructing local fitting domains...
 Local fitting domains are unchanged.
 
 First step of Coulomb + first step of exchange...
 Exchange contribution is evaluated for MOs 1 to 38.
   1% done.
  14% done.
  25% done.
  38% done.
  49% done.
  64% done.
  75% done.
  89% done.
 100% done.
 CPU time [min]:     6.572                   Wall time [min]:     0.285
 
 Fitting and assembly step of exchange...
 CPU time [min]:     6.578                   Wall time [min]:     0.285
 
 Second step of Coulomb...
   1% done.
  14% done.
  25% done.
  38% done.
  49% done.
  64% done.
  75% done.
  89% done.
 100% done.
 CPU time [min]:     6.616                   Wall time [min]:     0.286
 
 Calculating the exchange-correlation matrix...
                   0.4700*B88 [au]:    -22.871152390232
                   0.7300*LYP [au]:     -2.025722277702
 Exchange-correlation energy  [au]:    -24.896874667934
 CPU time [min]:     6.921                   Wall time [min]:     0.302
 
 Coulomb energy + HF exchange [au]:    808.084143670684
 Gradient norm:      4.7705E-04
 DIIS is running in this iteration step.
 RMS of [F,P]:                                         0.00001225983629
 RMS of difference density:                            0.00002682851175
 Gap [au]:  0.13650404
 ALPHA OCC:  38
 BETA  OCC:  38
 
 ***KOHN-SHAM ENERGY IN STEP  11 IS          -541.5979411967739452 [AU]
 
 Step comparison  Energy Drift [au]  DIIS error drift  Gradient drift
       10            2.9810E-06         9.4811E-06       2.4692E-04
 ======================================================================
 ITERATION STEP  12
 CPU time [min]:     6.929                   Wall time [min]:     0.302
 

 SCF control                  : diis
 Damping factor/level shift   : 0.000/0.000
 DIIS [start/end/frequency]   :   2 / 50 /  1

 Constructing Fock-matrix...
 
 Pipek-Mezey localization...
 Step  Convergence
   1  24.127795049446
   2   8.732356502708
   3  10.067200954758
   4   4.195901531740
   5   2.721127682170
   6   0.352637297897
   7   0.008177623480
   8   0.000452311740
   9   0.000007620211
  10   0.000000647563
  11   0.000000033225
  12   0.000000004163
  13   0.000000000226
  14   0.000000000043
  15   0.000000000002
  16   0.000000000000
 CPU time [min]:     6.955                   Wall time [min]:     0.303
 
 Constructing local fitting domains...
 Local fitting domains are unchanged.
 
 First step of Coulomb + first step of exchange...
 Exchange contribution is evaluated for MOs 1 to 38.
   1% done.
  14% done.
  25% done.
  38% done.
  49% done.
  64% done.
  75% done.
  89% done.
 100% done.
 CPU time [min]:     7.068                   Wall time [min]:     0.306
 
 Fitting and assembly step of exchange...
 CPU time [min]:     7.073                   Wall time [min]:     0.306
 
 Second step of Coulomb...
   1% done.
  14% done.
  25% done.
  38% done.
  49% done.
  64% done.
  75% done.
  89% done.
 100% done.
 CPU time [min]:     7.112                   Wall time [min]:     0.307
 
 Calculating the exchange-correlation matrix...
                   0.4700*B88 [au]:    -22.871067298767
                   0.7300*LYP [au]:     -2.025721922481
 Exchange-correlation energy  [au]:    -24.896789221248
 CPU time [min]:     7.416                   Wall time [min]:     0.323
 
 Coulomb energy + HF exchange [au]:    808.086747277174
 Gradient norm:      1.5208E-04
 DIIS is running in this iteration step.
 RMS of [F,P]:                                         0.00000506734173
 RMS of difference density:                            0.00000971638760
 Gap [au]:  0.13648745
 ALPHA OCC:  38
 BETA  OCC:  38
 
 ***KOHN-SHAM ENERGY IN STEP  12 IS          -541.5979418241502117 [AU]
 
 Step comparison  Energy Drift [au]  DIIS error drift  Gradient drift
       11            6.2738E-07         7.1925E-06       3.2498E-04
 ======================================================================
 ITERATION STEP  13
 CPU time [min]:     7.425                   Wall time [min]:     0.323
 

 SCF control                  : diis
 Damping factor/level shift   : 0.000/0.000
 DIIS [start/end/frequency]   :   2 / 50 /  1

 Constructing Fock-matrix...
 
 Pipek-Mezey localization...
 Step  Convergence
   1  13.823541804160
   2   5.129786573882
   3   6.491654602540
   4   3.208720538082
   5   1.011626397670
   6   0.052715357272
   7   0.000401610595
   8   0.000022236502
   9   0.000001678644
  10   0.000000203713
  11   0.000000016469
  12   0.000000002385
  13   0.000000000205
  14   0.000000000031
  15   0.000000000003
  16   0.000000000000
 CPU time [min]:     7.451                   Wall time [min]:     0.324
 
 Constructing local fitting domains...
 Local fitting domains are unchanged.
 
 First step of Coulomb + first step of exchange...
 Exchange contribution is evaluated for MOs 1 to 38.
   1% done.
  14% done.
  25% done.
  38% done.
  49% done.
  64% done.
  75% done.
  89% done.
 100% done.
 CPU time [min]:     7.563                   Wall time [min]:     0.327
 
 Fitting and assembly step of exchange...
 CPU time [min]:     7.569                   Wall time [min]:     0.327
 
 Second step of Coulomb...
   1% done.
  14% done.
  25% done.
  38% done.
  49% done.
  64% done.
  75% done.
  89% done.
 100% done.
 CPU time [min]:     7.607                   Wall time [min]:     0.328
 
 Calculating the exchange-correlation matrix...
                   0.4700*B88 [au]:    -22.870981631429
                   0.7300*LYP [au]:     -2.025719622032
 Exchange-correlation energy  [au]:    -24.896701253461
 CPU time [min]:     7.912                   Wall time [min]:     0.344
 
 Coulomb energy + HF exchange [au]:    808.084690376342
 Gradient norm:      7.7946E-05
 DIIS is running in this iteration step.
 RMS of [F,P]:                                         0.00000213184993
 RMS of difference density:                            0.00000687394134
 Gap [au]:  0.13649501
 ALPHA OCC:  38
 BETA  OCC:  38
 
 ***KOHN-SHAM ENERGY IN STEP  13 IS          -541.5979419229606719 [AU]
 
 Step comparison  Energy Drift [au]  DIIS error drift  Gradient drift
       12            9.8810E-08         2.9355E-06       7.4130E-05
 ======================================================================
 ITERATION STEP  14
 CPU time [min]:     7.920                   Wall time [min]:     0.344
 

 SCF control                  : diis
 Damping factor/level shift   : 0.000/0.000
 DIIS [start/end/frequency]   :   2 / 50 /  1

 Constructing Fock-matrix...
 
 Pipek-Mezey localization...
 Step  Convergence
   1  15.408892229932
   2   7.746478753191
   3   7.587557917102
   4   3.061059107669
   5   1.320629361249
   6   0.238743744145
   7   0.125641624794
   8   0.008793680096
   9   0.000019162765
  10   0.000000238968
  11   0.000000016049
  12   0.000000000721
  13   0.000000000059
  14   0.000000000002
  15   0.000000000000
 CPU time [min]:     7.945                   Wall time [min]:     0.345
 
 Constructing local fitting domains...
 Local fitting domains are unchanged.
 
 First step of Coulomb + first step of exchange...
 Exchange contribution is evaluated for MOs 1 to 38.
   1% done.
  14% done.
  25% done.
  38% done.
  49% done.
  64% done.
  75% done.
  89% done.
 100% done.
 CPU time [min]:     8.058                   Wall time [min]:     0.348
 
 Fitting and assembly step of exchange...
 CPU time [min]:     8.063                   Wall time [min]:     0.348
 
 Second step of Coulomb...
   1% done.
  14% done.
  25% done.
  38% done.
  49% done.
  64% done.
  75% done.
  89% done.
 100% done.
 CPU time [min]:     8.102                   Wall time [min]:     0.349
 
 Calculating the exchange-correlation matrix...
                   0.4700*B88 [au]:    -22.870901752398
                   0.7300*LYP [au]:     -2.025718125027
 Exchange-correlation energy  [au]:    -24.896619877425
 CPU time [min]:     8.422                   Wall time [min]:     0.366
 
 Coulomb energy + HF exchange [au]:    808.083990009736
 Gradient norm:      2.0514E-05
 DIIS is running in this iteration step.
 RMS of [F,P]:                                         0.00000077486235
 RMS of difference density:                            0.00000122365501
 Gap [au]:  0.13649631
 ALPHA OCC:  38
 BETA  OCC:  38
 
 ***KOHN-SHAM ENERGY IN STEP  14 IS          -541.5979419449847683 [AU]
 
 Step comparison  Energy Drift [au]  DIIS error drift  Gradient drift
       13            2.2024E-08         1.3570E-06       5.7432E-05
 ======================================================================
 ITERATION STEP  15
 CPU time [min]:     8.431                   Wall time [min]:     0.366
 

 SCF control                  : diis
 Damping factor/level shift   : 0.000/0.000
 DIIS [start/end/frequency]   :   2 / 50 /  1

 Constructing Fock-matrix...
 
 Pipek-Mezey localization...
 Step  Convergence
   1  17.498883471061
   2   6.631615960228
   3   4.518265507774
   4   2.158595435950
   5   0.638673755731
   6   0.013896772140
   7   0.000327194259
   8   0.000012314159
   9   0.000000634330
  10   0.000000035475
  11   0.000000002231
  12   0.000000000148
  13   0.000000000010
  14   0.000000000001
 CPU time [min]:     8.456                   Wall time [min]:     0.367
 
 Constructing local fitting domains...
 Local fitting domains are unchanged.
 
 First step of Coulomb + first step of exchange...
 Exchange contribution is evaluated for MOs 1 to 38.
   1% done.
  14% done.
  25% done.
  38% done.
  49% done.
  64% done.
  75% done.
  89% done.
 100% done.
 CPU time [min]:     8.568                   Wall time [min]:     0.370
 
 Fitting and assembly step of exchange...
 CPU time [min]:     8.574                   Wall time [min]:     0.370
 
 Second step of Coulomb...
   1% done.
  14% done.
  25% done.
  38% done.
  49% done.
  64% done.
  75% done.
  89% done.
 100% done.
 CPU time [min]:     8.612                   Wall time [min]:     0.371
 
 Calculating the exchange-correlation matrix...
                   0.4700*B88 [au]:    -22.870916769450
                   0.7300*LYP [au]:     -2.025718568352
 Exchange-correlation energy  [au]:    -24.896635337802
 CPU time [min]:     8.917                   Wall time [min]:     0.387
 
 Coulomb energy + HF exchange [au]:    808.084190852549
 Gradient norm:      8.7313E-06
 DIIS is running in this iteration step.
 RMS of [F,P]:                                         0.00000019269803
 RMS of difference density:                            0.00000076257068
 Gap [au]:  0.13649730
 ALPHA OCC:  38
 BETA  OCC:  38
 
 ***KOHN-SHAM ENERGY IN STEP  15 IS          -541.5979419465991214 [AU]
 
 Step comparison  Energy Drift [au]  DIIS error drift  Gradient drift
       14            1.6144E-09         5.8216E-07       1.1783E-05
 ======================================================================
 ITERATION STEP  16
 CPU time [min]:     8.925                   Wall time [min]:     0.387
 

 SCF control                  : diis
 Damping factor/level shift   : 0.000/0.000
 DIIS [start/end/frequency]   :   2 / 50 /  1

 Constructing Fock-matrix...
 
 Pipek-Mezey localization...
 Step  Convergence
   1  15.927523685938
   2   5.676048073718
   3   4.510013480165
   4   1.815615337108
   5   0.196476095610
   6   0.003543363220
   7   0.000130050356
   8   0.000008368217
   9   0.000000529515
  10   0.000000061594
  11   0.000000003588
  12   0.000000000521
  13   0.000000000029
  14   0.000000000005
  15   0.000000000000
 CPU time [min]:     8.951                   Wall time [min]:     0.388
 
 Constructing local fitting domains...
 Local fitting domains are unchanged.
 
 First step of Coulomb + first step of exchange...
 Exchange contribution is evaluated for MOs 1 to 38.
   1% done.
  14% done.
  25% done.
  38% done.
  49% done.
  64% done.
  75% done.
  89% done.
 100% done.
 CPU time [min]:     9.063                   Wall time [min]:     0.391
 
 Fitting and assembly step of exchange...
 CPU time [min]:     9.069                   Wall time [min]:     0.391
 
 Second step of Coulomb...
   1% done.
  14% done.
  25% done.
  38% done.
  49% done.
  64% done.
  75% done.
  89% done.
 100% done.
 CPU time [min]:     9.107                   Wall time [min]:     0.392
 
 Calculating the exchange-correlation matrix...
                   0.4700*B88 [au]:    -22.870912094777
                   0.7300*LYP [au]:     -2.025718457621
 Exchange-correlation energy  [au]:    -24.896630552398
 CPU time [min]:     9.412                   Wall time [min]:     0.408
 
 Coulomb energy + HF exchange [au]:    808.084081288756
 Gradient norm:      2.7159E-06
 DIIS is running in this iteration step.
 RMS of [F,P]:                                         0.00000006934013
 RMS of difference density:                            0.00000017261994
 Gap [au]:  0.13649584
 ALPHA OCC:  38
 BETA  OCC:  38
 
 ***KOHN-SHAM ENERGY IN STEP  16 IS          -541.5979419469074401 [AU]
 
 Step comparison  Energy Drift [au]  DIIS error drift  Gradient drift
       15            3.0832E-10         1.2336E-07       6.0155E-06
 ======================================================================
 ITERATION STEP  17
 CPU time [min]:     9.446                   Wall time [min]:     0.409
 

 SCF control                  : diis
 Damping factor/level shift   : 0.000/0.000
 DIIS [start/end/frequency]   :   2 / 50 /  1

 Constructing Fock-matrix...
 
 Pipek-Mezey localization...
 Step  Convergence
   1  15.708865572205
   2   7.898888809792
   3   6.575414300977
   4   2.304758779286
   5   0.591957011497
   6   0.191375826418
   7   0.001578898308
   8   0.000085050938
   9   0.000002483319
  10   0.000000322761
  11   0.000000008160
  12   0.000000001286
  13   0.000000000035
  14   0.000000000005
  15   0.000000000000
 CPU time [min]:     9.472                   Wall time [min]:     0.409
 
 Constructing local fitting domains...
 Local fitting domains are unchanged.
 
 First step of Coulomb + first step of exchange...
 Exchange contribution is evaluated for MOs 1 to 38.
   1% done.
  14% done.
  25% done.
  38% done.
  49% done.
  64% done.
  75% done.
  89% done.
 100% done.
 CPU time [min]:     9.585                   Wall time [min]:     0.413
 
 Fitting and assembly step of exchange...
 CPU time [min]:     9.590                   Wall time [min]:     0.413
 
 Second step of Coulomb...
   1% done.
  14% done.
  25% done.
  38% done.
  49% done.
  64% done.
  75% done.
  89% done.
 100% done.
 CPU time [min]:     9.629                   Wall time [min]:     0.414
 
 Calculating the exchange-correlation matrix...
                   0.4700*B88 [au]:    -22.870911570985
                   0.7300*LYP [au]:     -2.025718441664
 Exchange-correlation energy  [au]:    -24.896630012649
 CPU time [min]:     9.933                   Wall time [min]:     0.430
 
 Coulomb energy + HF exchange [au]:    808.084081150485
 Gradient norm:      1.2697E-06
 DIIS is running in this iteration step.
 RMS of [F,P]:                                         0.00000003745270
 RMS of difference density:                            0.00000007557487
 Gap [au]:  0.13649613
 ALPHA OCC:  38
 BETA  OCC:  38
 
 ***KOHN-SHAM ENERGY IN STEP  17 IS          -541.5979419469313143 [AU]
 
 Step comparison  Energy Drift [au]  DIIS error drift  Gradient drift
       16            2.3874E-11         3.1887E-08       1.4462E-06
 ======================================================================
 
 SUCCESS...
 THE SCF ITERATION HAS CONVERGED!
 
                   A   
 FINAL ALPHA OCC:  38
 FINAL BETA  OCC:  38
 
 ***FINAL KOHN-SHAM ENERGY:          -541.5979419469313143 [AU]
 
 Orbital energies [au]:
      Irrep         Alpha          Beta
    1   A         -4.376207      -4.376207
    2   A         -4.375681      -4.375681
    3   A         -4.353478      -4.353478
    4   A         -4.313046      -4.313046
    5   A         -2.531814      -2.531814
    6   A         -2.522882      -2.522882
    7   A         -2.521031      -2.521031
    8   A         -2.518206      -2.518206
    9   A         -2.517178      -2.517178
   10   A         -2.516332      -2.516332
   11   A         -2.504334      -2.504334
   12   A         -2.494386      -2.494386
   13   A         -2.490502      -2.490502
   14   A         -2.462838      -2.462838
   15   A         -2.453130      -2.453130
   16   A         -2.452746      -2.452746
   17   A         -0.479844      -0.479844
   18   A         -0.449770      -0.449770
   19   A         -0.434830      -0.434830
   20   A         -0.431680      -0.431680
   21   A         -0.408704      -0.408704
   22   A         -0.407593      -0.407593
   23   A         -0.394455      -0.394455
   24   A         -0.389720      -0.389720
   25   A         -0.373987      -0.373987
   26   A         -0.372348      -0.372348
   27   A         -0.367165      -0.367165
   28   A         -0.367053      -0.367053
   29   A         -0.355582      -0.355582
   30   A         -0.352393      -0.352393
   31   A         -0.350931      -0.350931
   32   A         -0.328496      -0.328496
   33   A         -0.321889      -0.321889
   34   A         -0.321742      -0.321742
   35   A         -0.311155      -0.311155
   36   A         -0.306559      -0.306559
   37   A         -0.302752      -0.302752
   38   A         -0.237547      -0.237547
 
   39   A         -0.101051      -0.101051
   40   A         -0.052740      -0.052740
   41   A         -0.010321      -0.010321
   42   A          0.021297       0.021297
   43   A          0.027609       0.027609
   44   A          0.040654       0.040654
   45   A          0.051642       0.051642
   46   A          0.072115       0.072115
   47   A          0.088131       0.088131
   48   A          0.128559       0.128559
   49   A          0.136016       0.136016
   50   A          0.154057       0.154057
   51   A          0.177705       0.177705
   52   A          0.180494       0.180494
   53   A          0.205508       0.205508
   54   A          0.244176       0.244176
   55   A          0.262739       0.262739
   56   A          0.305906       0.305906
   57   A          0.485111       0.485111
   58   A          0.490291       0.490291
   59   A          0.500479       0.500479
   60   A          0.512733       0.512733
   61   A          0.528294       0.528294
   62   A          0.545127       0.545127
   63   A          0.545470       0.545470
   64   A          0.558112       0.558112
   65   A          0.560666       0.560666
   66   A          0.594685       0.594685
   67   A          0.612551       0.612551
   68   A          0.618146       0.618146
   69   A          0.635554       0.635554
   70   A          0.653448       0.653448
   71   A          0.672127       0.672127
   72   A          0.677356       0.677356
   73   A          0.689242       0.689242
   74   A          0.712165       0.712165
   75   A          0.721700       0.721700
   76   A          0.836416       0.836416
   77   A          0.866047       0.866047
   78   A          0.869056       0.869056
   79   A          0.887474       0.887474
   80   A          0.909117       0.909117
   81   A          0.929767       0.929767
   82   A          0.932372       0.932372
   83   A          1.014221       1.014221
   84   A          1.032263       1.032263
   85   A          1.233912       1.233912
   86   A          1.240203       1.240203
   87   A          1.289573       1.289573
   88   A          1.379930       1.379930
   89   A          1.603675       1.603675
   90   A          1.607133       1.607133
   91   A          1.617224       1.617224
   92   A          1.620245       1.620245
   93   A          1.632397       1.632397
   94   A          1.640876       1.640876
   95   A          1.655714       1.655714
   96   A          1.662690       1.662690
   97   A          1.676580       1.676580
   98   A          1.680006       1.680006
   99   A          1.687608       1.687608
  100   A          1.697964       1.697964
  101   A          1.703577       1.703577
  102   A          1.719518       1.719518
  103   A          1.734439       1.734439
  104   A          1.736404       1.736404
  105   A          1.739869       1.739869
  106   A          1.739892       1.739892
  107   A          1.756685       1.756685
  108   A          1.758741       1.758741
  109   A          1.769973       1.769973
  110   A          1.781713       1.781713
  111   A          1.788783       1.788783
  112   A          1.799244       1.799244
  113   A          1.850302       1.850302
  114   A          1.861996       1.861996
  115   A          1.959615       1.959615
  116   A          1.961073       1.961073
  117   A          2.064089       2.064089
  118   A          2.196937       2.196937
  119   A          2.211857       2.211857
  120   A          2.499846       2.499846
  121   A         41.460307      41.460307
  122   A         41.501599      41.501599
  123   A         41.505353      41.505353
  124   A         41.680010      41.680010
  125   A        197.538695     197.538695
  126   A        197.559722     197.559722
  127   A        197.577846     197.577846
  128   A        197.664894     197.664894
 
 RETURNING FROM SCF ALGORITHM
 ======================================================================

 ************************ 2023-02-14 23:37:20 *************************
 Executing integ...

 Allocation of 220.0 Gbytes of memory...
 
 
 Number of atoms:                  4
 Charge:                           0
 Number of electrons:             76
 Number of core electrons:         0
 Spin multiplicity:                1
 
                 Cartesian coordinates [bohr]      Atomic mass [AMU]  Z
   1  Au   -1.75039564    4.64563821   -0.21187008   196.966543      79
   2  Au   -2.20204861   -4.64563821   -1.93652517   196.966543      79
   3  Au   -0.94460200   -0.31732582   -0.48798313   196.966543      79
   4  Au    2.20204861    2.77603576    1.93652517   196.966543      79
 
 This molecule is an asymmetric top.
 This molecule is planar.
 
 Point group: C1  
 Computational point group: C1  
 
 Cartesian coordinates in standard orientation [bohr]
   1  Au    3.38789614   -2.43543288    0.00017458
   2  Au   -5.75410460   -0.00026027    0.00032486
   3  Au   -1.01979016   -0.00050896   -0.00067386
   4  Au    3.38599862    2.43620211    0.00017442
 
 Nuclear repulsion energy [au]:        370.067886072357
 
 
 Basis set information:
 
 Maximum angular momentum: i
 Maximum number of contracted Gaussians:   13
 Maximum number of primitive Gaussians:    13
 Spherical harmonic GTOs are used.
 
 
 Conventional basis set:
 
   1  Au bse_acvtz [ 13s 12p 11d 4f 3g | 8s 8p 7d 4f 3g ]
   2  Au bse_acvtz [ 13s 12p 11d 4f 3g | 8s 8p 7d 4f 3g ]
   3  Au bse_acvtz [ 13s 12p 11d 4f 3g | 8s 8p 7d 4f 3g ]
   4  Au bse_acvtz [ 13s 12p 11d 4f 3g | 8s 8p 7d 4f 3g ]
 
 Basis functions:
            1             2             3             4             5             6             7             8             9            10
    0    1Au1s         1Au2s         1Au3s         1Au4s         1Au5s         1Au6s         1Au7s         1Au8s         1Au1pz        1Au1py    
    1    1Au1px        1Au2pz        1Au2py        1Au2px        1Au3pz        1Au3py        1Au3px        1Au4pz        1Au4py        1Au4px    
    2    1Au5pz        1Au5py        1Au5px        1Au6pz        1Au6py        1Au6px        1Au7pz        1Au7py        1Au7px        1Au8pz    
    3    1Au8py        1Au8px        1Au1d-2       1Au1d-1       1Au1d0        1Au1d+1       1Au1d+2       1Au2d-2       1Au2d-1       1Au2d0    
    4    1Au2d+1       1Au2d+2       1Au3d-2       1Au3d-1       1Au3d0        1Au3d+1       1Au3d+2       1Au4d-2       1Au4d-1       1Au4d0    
    5    1Au4d+1       1Au4d+2       1Au5d-2       1Au5d-1       1Au5d0        1Au5d+1       1Au5d+2       1Au6d-2       1Au6d-1       1Au6d0    
    6    1Au6d+1       1Au6d+2       1Au7d-2       1Au7d-1       1Au7d0        1Au7d+1       1Au7d+2       1Au1f-3       1Au1f-2       1Au1f-1   
    7    1Au1f0        1Au1f+1       1Au1f+2       1Au1f+3       1Au2f-3       1Au2f-2       1Au2f-1       1Au2f0        1Au2f+1       1Au2f+2   
    8    1Au2f+3       1Au3f-3       1Au3f-2       1Au3f-1       1Au3f0        1Au3f+1       1Au3f+2       1Au3f+3       1Au4f-3       1Au4f-2   
    9    1Au4f-1       1Au4f0        1Au4f+1       1Au4f+2       1Au4f+3       1Au1g-4       1Au1g-3       1Au1g-2       1Au1g-1       1Au1g0    
   10    1Au1g+1       1Au1g+2       1Au1g+3       1Au1g+4       1Au2g-4       1Au2g-3       1Au2g-2       1Au2g-1       1Au2g0        1Au2g+1   
   11    1Au2g+2       1Au2g+3       1Au2g+4       1Au3g-4       1Au3g-3       1Au3g-2       1Au3g-1       1Au3g0        1Au3g+1       1Au3g+2   
   12    1Au3g+3       1Au3g+4       2Au1s         2Au2s         2Au3s         2Au4s         2Au5s         2Au6s         2Au7s         2Au8s     
   13    2Au1pz        2Au1py        2Au1px        2Au2pz        2Au2py        2Au2px        2Au3pz        2Au3py        2Au3px        2Au4pz    
   14    2Au4py        2Au4px        2Au5pz        2Au5py        2Au5px        2Au6pz        2Au6py        2Au6px        2Au7pz        2Au7py    
   15    2Au7px        2Au8pz        2Au8py        2Au8px        2Au1d-2       2Au1d-1       2Au1d0        2Au1d+1       2Au1d+2       2Au2d-2   
   16    2Au2d-1       2Au2d0        2Au2d+1       2Au2d+2       2Au3d-2       2Au3d-1       2Au3d0        2Au3d+1       2Au3d+2       2Au4d-2   
   17    2Au4d-1       2Au4d0        2Au4d+1       2Au4d+2       2Au5d-2       2Au5d-1       2Au5d0        2Au5d+1       2Au5d+2       2Au6d-2   
   18    2Au6d-1       2Au6d0        2Au6d+1       2Au6d+2       2Au7d-2       2Au7d-1       2Au7d0        2Au7d+1       2Au7d+2       2Au1f-3   
   19    2Au1f-2       2Au1f-1       2Au1f0        2Au1f+1       2Au1f+2       2Au1f+3       2Au2f-3       2Au2f-2       2Au2f-1       2Au2f0    
   20    2Au2f+1       2Au2f+2       2Au2f+3       2Au3f-3       2Au3f-2       2Au3f-1       2Au3f0        2Au3f+1       2Au3f+2       2Au3f+3   
   21    2Au4f-3       2Au4f-2       2Au4f-1       2Au4f0        2Au4f+1       2Au4f+2       2Au4f+3       2Au1g-4       2Au1g-3       2Au1g-2   
   22    2Au1g-1       2Au1g0        2Au1g+1       2Au1g+2       2Au1g+3       2Au1g+4       2Au2g-4       2Au2g-3       2Au2g-2       2Au2g-1   
   23    2Au2g0        2Au2g+1       2Au2g+2       2Au2g+3       2Au2g+4       2Au3g-4       2Au3g-3       2Au3g-2       2Au3g-1       2Au3g0    
   24    2Au3g+1       2Au3g+2       2Au3g+3       2Au3g+4       3Au1s         3Au2s         3Au3s         3Au4s         3Au5s         3Au6s     
   25    3Au7s         3Au8s         3Au1pz        3Au1py        3Au1px        3Au2pz        3Au2py        3Au2px        3Au3pz        3Au3py    
   26    3Au3px        3Au4pz        3Au4py        3Au4px        3Au5pz        3Au5py        3Au5px        3Au6pz        3Au6py        3Au6px    
   27    3Au7pz        3Au7py        3Au7px        3Au8pz        3Au8py        3Au8px        3Au1d-2       3Au1d-1       3Au1d0        3Au1d+1   
   28    3Au1d+2       3Au2d-2       3Au2d-1       3Au2d0        3Au2d+1       3Au2d+2       3Au3d-2       3Au3d-1       3Au3d0        3Au3d+1   
   29    3Au3d+2       3Au4d-2       3Au4d-1       3Au4d0        3Au4d+1       3Au4d+2       3Au5d-2       3Au5d-1       3Au5d0        3Au5d+1   
   30    3Au5d+2       3Au6d-2       3Au6d-1       3Au6d0        3Au6d+1       3Au6d+2       3Au7d-2       3Au7d-1       3Au7d0        3Au7d+1   
   31    3Au7d+2       3Au1f-3       3Au1f-2       3Au1f-1       3Au1f0        3Au1f+1       3Au1f+2       3Au1f+3       3Au2f-3       3Au2f-2   
   32    3Au2f-1       3Au2f0        3Au2f+1       3Au2f+2       3Au2f+3       3Au3f-3       3Au3f-2       3Au3f-1       3Au3f0        3Au3f+1   
   33    3Au3f+2       3Au3f+3       3Au4f-3       3Au4f-2       3Au4f-1       3Au4f0        3Au4f+1       3Au4f+2       3Au4f+3       3Au1g-4   
   34    3Au1g-3       3Au1g-2       3Au1g-1       3Au1g0        3Au1g+1       3Au1g+2       3Au1g+3       3Au1g+4       3Au2g-4       3Au2g-3   
   35    3Au2g-2       3Au2g-1       3Au2g0        3Au2g+1       3Au2g+2       3Au2g+3       3Au2g+4       3Au3g-4       3Au3g-3       3Au3g-2   
   36    3Au3g-1       3Au3g0        3Au3g+1       3Au3g+2       3Au3g+3       3Au3g+4       4Au1s         4Au2s         4Au3s         4Au4s     
   37    4Au5s         4Au6s         4Au7s         4Au8s         4Au1pz        4Au1py        4Au1px        4Au2pz        4Au2py        4Au2px    
   38    4Au3pz        4Au3py        4Au3px        4Au4pz        4Au4py        4Au4px        4Au5pz        4Au5py        4Au5px        4Au6pz    
   39    4Au6py        4Au6px        4Au7pz        4Au7py        4Au7px        4Au8pz        4Au8py        4Au8px        4Au1d-2       4Au1d-1   
   40    4Au1d0        4Au1d+1       4Au1d+2       4Au2d-2       4Au2d-1       4Au2d0        4Au2d+1       4Au2d+2       4Au3d-2       4Au3d-1   
   41    4Au3d0        4Au3d+1       4Au3d+2       4Au4d-2       4Au4d-1       4Au4d0        4Au4d+1       4Au4d+2       4Au5d-2       4Au5d-1   
   42    4Au5d0        4Au5d+1       4Au5d+2       4Au6d-2       4Au6d-1       4Au6d0        4Au6d+1       4Au6d+2       4Au7d-2       4Au7d-1   
   43    4Au7d0        4Au7d+1       4Au7d+2       4Au1f-3       4Au1f-2       4Au1f-1       4Au1f0        4Au1f+1       4Au1f+2       4Au1f+3   
   44    4Au2f-3       4Au2f-2       4Au2f-1       4Au2f0        4Au2f+1       4Au2f+2       4Au2f+3       4Au3f-3       4Au3f-2       4Au3f-1   
   45    4Au3f0        4Au3f+1       4Au3f+2       4Au3f+3       4Au4f-3       4Au4f-2       4Au4f-1       4Au4f0        4Au4f+1       4Au4f+2   
   46    4Au4f+3       4Au1g-4       4Au1g-3       4Au1g-2       4Au1g-1       4Au1g0        4Au1g+1       4Au1g+2       4Au1g+3       4Au1g+4   
   47    4Au2g-4       4Au2g-3       4Au2g-2       4Au2g-1       4Au2g0        4Au2g+1       4Au2g+2       4Au2g+3       4Au2g+4       4Au3g-4   
   48    4Au3g-3       4Au3g-2       4Au3g-1       4Au3g0        4Au3g+1       4Au3g+2       4Au3g+3       4Au3g+4   
 
 Maximum number of basis functions per shell:   35
 Total number of basis functions:    488
 
 
 Fitting basis set for the SCF calculation:
 
[...]
   22    4     1.000000        1    2    3    4
   23    4     1.000000        1    2    3    4
   24    4     1.000000        1    2    3    4
   25    4     1.000000        1    2    3    4
   26    4     1.000000        1    2    3    4
   27    4     1.000000        1    2    3    4
   28    4     1.000000        1    2    3    4
   29    4     1.000000        1    2    3    4
   30    4     1.000000        1    2    3    4
   31    4     1.000000        1    2    3    4
   32    4     1.000000        1    2    3    4
   33    4     1.000000        1    2    3    4
   34    4     1.000000        1    2    3    4
   35    4     1.000000        1    2    3    4
   36    4     1.000000        1    2    3    4
   37    4     1.000000        1    2    3    4
   38    4     1.000000        1    2    3    4
 
 Executing the Boughton-Pulay algorithm...
  with occ MO completeness:    0.9850000000
 
   MO  Natoms  Completeness   Atoms
    1    1     0.998369        3
    2    1     0.999053        2
    3    1     0.999255        4
    4    1     0.999258        1
    5    1     0.996615        3
    6    1     0.998752        2
    7    1     0.998028        4
    8    1     0.998524        1
    9    1     0.998566        4
   10    1     0.998567        1
   11    1     0.996671        3
   12    1     0.994332        4
   13    1     0.999106        1
   14    1     0.996662        3
   15    1     0.999066        2
   16    1     0.999064        2
   17    1     0.999100        4
   18    1     0.998250        1
   19    1     0.997971        4
   20    1     0.997963        1
   21    1     0.995840        3
   22    1     0.999056        2
   23    1     0.994335        1
   24    1     0.998519        4
   25    1     0.998750        2
   26    1     0.998034        1
   27    1     0.994128        3
   28    1     0.996595        2
   29    1     0.998709        2
   30    1     0.998402        3
   31    1     0.995346        4
   32    1     0.998262        4
   33    1     0.995357        1
   34    1     0.998710        2
   35    1     0.995842        3
   36    1     0.994157        3
   37    2     0.991857        2    3
   38    3     0.997059        1    3    4
 CPU time [min]:     3.776                   Wall time [min]:     0.116
 
 Dimensions of the occupied LMO domains:  Minimum / Average / Maximum
 
 Number of atoms in domain:                   4       4.0         4
 Number of atomic orbitals:                 488     488.0       488
 
 Total number of pairs:   703
 Number of distant pairs: 112 (15.9%)
 Sum of multipole based pair energies:     -0.0004426965
 
 CPU time [min]:     3.843                   Wall time [min]:     0.118
 Number of strong pairs: 591 (84.1%)
        5.73 MB memory is used for domain independent quantities
 
 Calculating the contribution of occupied LMOs...
    using local fitting domains
 
 MO:     1
 Number of atoms in domain:       4
 Number of atomic orbitals:     488
 Number of atoms for local DF:    4
 Number of fitting functions:  1444 (100.00%)
 Number of occupied orbitals:    38
 Number of virtual  orbitals:   450
 Number of Cholesky vectors:     11
 MP2 energy in ED [au]:          -0.091277156519
 CPU time [min]:     8.039                   Wall time [min]:     0.236
 
 MO:     2
 Number of atoms in domain:       4
 Number of atomic orbitals:     488
 Number of atoms for local DF:    4
 Number of fitting functions:  1444 (100.00%)
 Number of occupied orbitals:    24
 Number of virtual  orbitals:   450
 Number of Cholesky vectors:     11
 MP2 energy in ED [au]:          -0.090133942225
 CPU time [min]:    10.728                   Wall time [min]:     0.311
 
 MO:     3
 Number of atoms in domain:       4
 Number of atomic orbitals:     488
 Number of atoms for local DF:    4
 Number of fitting functions:  1444 (100.00%)
 Number of occupied orbitals:    30
 Number of virtual  orbitals:   450
 Number of Cholesky vectors:     10
 MP2 energy in ED [au]:          -0.089015038788
 CPU time [min]:    13.813                   Wall time [min]:     0.397
 
 MO:     4
 Number of atoms in domain:       4
 Number of atomic orbitals:     488
 Number of atoms for local DF:    4
 Number of fitting functions:  1444 (100.00%)
 Number of occupied orbitals:    30
 Number of virtual  orbitals:   450
 Number of Cholesky vectors:     10
 MP2 energy in ED [au]:          -0.089010374949
 CPU time [min]:    16.895                   Wall time [min]:     0.483
 
 MO:     5
 Number of atoms in domain:       4
 Number of atomic orbitals:     488
 Number of atoms for local DF:    4
 Number of fitting functions:  1444 (100.00%)
 Number of occupied orbitals:    38
 Number of virtual  orbitals:   450
 Number of Cholesky vectors:     11
 MP2 energy in ED [au]:          -0.099640421745
 CPU time [min]:    20.520                   Wall time [min]:     0.584
 
 MO:     6
 Number of atoms in domain:       4
 Number of atomic orbitals:     488
 Number of atoms for local DF:    4
 Number of fitting functions:  1444 (100.00%)
 Number of occupied orbitals:    24
 Number of virtual  orbitals:   450
 Number of Cholesky vectors:     11
 MP2 energy in ED [au]:          -0.089415033438
 CPU time [min]:    23.212                   Wall time [min]:     0.659
 
 MO:     7
 Number of atoms in domain:       4
 Number of atomic orbitals:     488
 Number of atoms for local DF:    4
 Number of fitting functions:  1444 (100.00%)
 Number of occupied orbitals:    30
 Number of virtual  orbitals:   450
 Number of Cholesky vectors:     10
 MP2 energy in ED [au]:          -0.089264867041
 CPU time [min]:    26.287                   Wall time [min]:     0.745
 
 MO:     8
 Number of atoms in domain:       4
 Number of atomic orbitals:     488
 Number of atoms for local DF:    4
 Number of fitting functions:  1444 (100.00%)
 Number of occupied orbitals:    30
 Number of virtual  orbitals:   450
 Number of Cholesky vectors:     10
 MP2 energy in ED [au]:          -0.091726877937
 CPU time [min]:    29.370                   Wall time [min]:     0.830
 
 MO:     9
 Number of atoms in domain:       4
 Number of atomic orbitals:     488
 Number of atoms for local DF:    4
 Number of fitting functions:  1444 (100.00%)
 Number of occupied orbitals:    30
 Number of virtual  orbitals:   450
 Number of Cholesky vectors:     10
 MP2 energy in ED [au]:          -0.088675503053
 CPU time [min]:    32.452                   Wall time [min]:     0.916
 
 MO:    10
 Number of atoms in domain:       4
 Number of atomic orbitals:     488
 Number of atoms for local DF:    4
 Number of fitting functions:  1444 (100.00%)
 Number of occupied orbitals:    30
 Number of virtual  orbitals:   450
 Number of Cholesky vectors:     10
 MP2 energy in ED [au]:          -0.088677627563
 CPU time [min]:    35.539                   Wall time [min]:     1.002
 
 MO:    11
 Number of atoms in domain:       4
 Number of atomic orbitals:     488
 Number of atoms for local DF:    4
 Number of fitting functions:  1444 (100.00%)
 Number of occupied orbitals:    38
 Number of virtual  orbitals:   450
 Number of Cholesky vectors:     11
 MP2 energy in ED [au]:          -0.094427795662
 CPU time [min]:    39.187                   Wall time [min]:     1.104
 
 MO:    12
 Number of atoms in domain:       4
 Number of atomic orbitals:     488
 Number of atoms for local DF:    4
 Number of fitting functions:  1444 (100.00%)
 Number of occupied orbitals:    38
 Number of virtual  orbitals:   450
 Number of Cholesky vectors:     11
 MP2 energy in ED [au]:          -0.093931845042
 CPU time [min]:    42.853                   Wall time [min]:     1.206
 
 MO:    13
 Number of atoms in domain:       4
 Number of atomic orbitals:     488
 Number of atoms for local DF:    4
 Number of fitting functions:  1444 (100.00%)
 Number of occupied orbitals:    30
 Number of virtual  orbitals:   450
 Number of Cholesky vectors:     10
 MP2 energy in ED [au]:          -0.088863684914
 CPU time [min]:    45.930                   Wall time [min]:     1.292
 
 MO:    14
 Number of atoms in domain:       4
 Number of atomic orbitals:     488
 Number of atoms for local DF:    4
 Number of fitting functions:  1444 (100.00%)
 Number of occupied orbitals:    38
 Number of virtual  orbitals:   450
 Number of Cholesky vectors:     11
 MP2 energy in ED [au]:          -0.094438283402
 CPU time [min]:    49.566                   Wall time [min]:     1.393
 
 MO:    15
 Number of atoms in domain:       4
 Number of atomic orbitals:     488
 Number of atoms for local DF:    4
 Number of fitting functions:  1444 (100.00%)
 Number of occupied orbitals:    24
 Number of virtual  orbitals:   450
 Number of Cholesky vectors:     11
 MP2 energy in ED [au]:          -0.090086972731
 CPU time [min]:    52.251                   Wall time [min]:     1.468
 
 MO:    16
 Number of atoms in domain:       4
 Number of atomic orbitals:     488
 Number of atoms for local DF:    4
 Number of fitting functions:  1444 (100.00%)
 Number of occupied orbitals:    24
 Number of virtual  orbitals:   450
 Number of Cholesky vectors:     11
 MP2 energy in ED [au]:          -0.090091582487
 CPU time [min]:    54.950                   Wall time [min]:     1.543
 
 MO:    17
 Number of atoms in domain:       4
 Number of atomic orbitals:     488
 Number of atoms for local DF:    4
 Number of fitting functions:  1444 (100.00%)
 Number of occupied orbitals:    30
 Number of virtual  orbitals:   450
 Number of Cholesky vectors:     10
 MP2 energy in ED [au]:          -0.088868663092
 CPU time [min]:    58.040                   Wall time [min]:     1.629
 
 MO:    18
 Number of atoms in domain:       4
 Number of atomic orbitals:     488
 Number of atoms for local DF:    4
 Number of fitting functions:  1444 (100.00%)
 Number of occupied orbitals:    30
 Number of virtual  orbitals:   450
 Number of Cholesky vectors:     10
 MP2 energy in ED [au]:          -0.091975988788
 CPU time [min]:    61.135                   Wall time [min]:     1.716
 
 MO:    19
 Number of atoms in domain:       4
 Number of atomic orbitals:     488
 Number of atoms for local DF:    4
 Number of fitting functions:  1444 (100.00%)
 Number of occupied orbitals:    30
 Number of virtual  orbitals:   450
 Number of Cholesky vectors:     10
 MP2 energy in ED [au]:          -0.089318398801
 CPU time [min]:    64.227                   Wall time [min]:     1.802
 
 MO:    20
 Number of atoms in domain:       4
 Number of atomic orbitals:     488
 Number of atoms for local DF:    4
 Number of fitting functions:  1444 (100.00%)
 Number of occupied orbitals:    30
 Number of virtual  orbitals:   450
 Number of Cholesky vectors:     10
 MP2 energy in ED [au]:          -0.089325138173
 CPU time [min]:    67.338                   Wall time [min]:     1.888
 
 MO:    21
 Number of atoms in domain:       4
 Number of atomic orbitals:     488
 Number of atoms for local DF:    4
 Number of fitting functions:  1444 (100.00%)
 Number of occupied orbitals:    38
 Number of virtual  orbitals:   450
 Number of Cholesky vectors:     11
 MP2 energy in ED [au]:          -0.093357923690
 CPU time [min]:    70.971                   Wall time [min]:     1.990
 
 MO:    22
 Number of atoms in domain:       4
 Number of atomic orbitals:     488
 Number of atoms for local DF:    4
 Number of fitting functions:  1444 (100.00%)
 Number of occupied orbitals:    24
 Number of virtual  orbitals:   450
 Number of Cholesky vectors:     11
 MP2 energy in ED [au]:          -0.090124825403
 CPU time [min]:    73.665                   Wall time [min]:     2.065
 
 MO:    23
 Number of atoms in domain:       4
 Number of atomic orbitals:     488
 Number of atoms for local DF:    4
 Number of fitting functions:  1444 (100.00%)
 Number of occupied orbitals:    38
 Number of virtual  orbitals:   450
 Number of Cholesky vectors:     11
 MP2 energy in ED [au]:          -0.093920511607
 CPU time [min]:    77.314                   Wall time [min]:     2.166
 
 MO:    24
 Number of atoms in domain:       4
 Number of atomic orbitals:     488
 Number of atoms for local DF:    4
 Number of fitting functions:  1444 (100.00%)
 Number of occupied orbitals:    30
 Number of virtual  orbitals:   450
 Number of Cholesky vectors:     10
 MP2 energy in ED [au]:          -0.091726517265
 CPU time [min]:    80.392                   Wall time [min]:     2.252
 
 MO:    25
 Number of atoms in domain:       4
 Number of atomic orbitals:     488
 Number of atoms for local DF:    4
 Number of fitting functions:  1444 (100.00%)
 Number of occupied orbitals:    24
 Number of virtual  orbitals:   450
 Number of Cholesky vectors:     11
 MP2 energy in ED [au]:          -0.089419955049
 CPU time [min]:    83.091                   Wall time [min]:     2.327
 
 MO:    26
 Number of atoms in domain:       4
 Number of atomic orbitals:     488
 Number of atoms for local DF:    4
 Number of fitting functions:  1444 (100.00%)
 Number of occupied orbitals:    30
 Number of virtual  orbitals:   450
 Number of Cholesky vectors:     10
 MP2 energy in ED [au]:          -0.089265885838
 CPU time [min]:    86.194                   Wall time [min]:     2.414
 
 MO:    27
 Number of atoms in domain:       4
 Number of atomic orbitals:     488
 Number of atoms for local DF:    4
 Number of fitting functions:  1444 (100.00%)
 Number of occupied orbitals:    38
 Number of virtual  orbitals:   450
 Number of Cholesky vectors:     11
 MP2 energy in ED [au]:          -0.095570071085
 CPU time [min]:    89.838                   Wall time [min]:     2.515
 
 MO:    28
 Number of atoms in domain:       4
 Number of atomic orbitals:     488
 Number of atoms for local DF:    4
 Number of fitting functions:  1444 (100.00%)
 Number of occupied orbitals:    38
 Number of virtual  orbitals:   450
 Number of Cholesky vectors:     11
 MP2 energy in ED [au]:          -0.100732608050
 CPU time [min]:    93.475                   Wall time [min]:     2.617
 
 MO:    29
 Number of atoms in domain:       4
 Number of atomic orbitals:     488
 Number of atoms for local DF:    4
 Number of fitting functions:  1444 (100.00%)
 Number of occupied orbitals:    24
 Number of virtual  orbitals:   450
 Number of Cholesky vectors:     11
 MP2 energy in ED [au]:          -0.092229775780
 CPU time [min]:    96.178                   Wall time [min]:     2.692
 
 MO:    30
 Number of atoms in domain:       4
 Number of atomic orbitals:     488
 Number of atoms for local DF:    4
 Number of fitting functions:  1444 (100.00%)
 Number of occupied orbitals:    38
 Number of virtual  orbitals:   450
 Number of Cholesky vectors:     11
 MP2 energy in ED [au]:          -0.091260219126
 CPU time [min]:    99.812                   Wall time [min]:     2.793
 
 MO:    31
 Number of atoms in domain:       4
 Number of atomic orbitals:     488
 Number of atoms for local DF:    4
 Number of fitting functions:  1444 (100.00%)
 Number of occupied orbitals:    38
 Number of virtual  orbitals:   450
 Number of Cholesky vectors:     11
 MP2 energy in ED [au]:          -0.096844262013
 CPU time [min]:   103.466                   Wall time [min]:     2.895
 
 MO:    32
 Number of atoms in domain:       4
 Number of atomic orbitals:     488
 Number of atoms for local DF:    4
 Number of fitting functions:  1444 (100.00%)
 Number of occupied orbitals:    30
 Number of virtual  orbitals:   450
 Number of Cholesky vectors:     10
 MP2 energy in ED [au]:          -0.091974859566
 CPU time [min]:   106.555                   Wall time [min]:     2.981
 
 MO:    33
 Number of atoms in domain:       4
 Number of atomic orbitals:     488
 Number of atoms for local DF:    4
 Number of fitting functions:  1444 (100.00%)
 Number of occupied orbitals:    38
 Number of virtual  orbitals:   450
 Number of Cholesky vectors:     11
 MP2 energy in ED [au]:          -0.096846951244
 CPU time [min]:   110.201                   Wall time [min]:     3.083
 
 MO:    34
 Number of atoms in domain:       4
 Number of atomic orbitals:     488
 Number of atoms for local DF:    4
 Number of fitting functions:  1444 (100.00%)
 Number of occupied orbitals:    24
 Number of virtual  orbitals:   450
 Number of Cholesky vectors:     11
 MP2 energy in ED [au]:          -0.092229712334
 CPU time [min]:   112.889                   Wall time [min]:     3.158
 
 MO:    35
 Number of atoms in domain:       4
 Number of atomic orbitals:     488
 Number of atoms for local DF:    4
 Number of fitting functions:  1444 (100.00%)
 Number of occupied orbitals:    38
 Number of virtual  orbitals:   450
 Number of Cholesky vectors:     11
 MP2 energy in ED [au]:          -0.093341114028
 CPU time [min]:   116.528                   Wall time [min]:     3.259
 
 MO:    36
 Number of atoms in domain:       4
 Number of atomic orbitals:     488
 Number of atoms for local DF:    4
 Number of fitting functions:  1444 (100.00%)
 Number of occupied orbitals:    38
 Number of virtual  orbitals:   450
 Number of Cholesky vectors:     11
 MP2 energy in ED [au]:          -0.095538692829
 CPU time [min]:   120.166                   Wall time [min]:     3.360
 
 MO:    37
 Number of atoms in domain:       4
 Number of atomic orbitals:     488
 Number of atoms for local DF:    4
 Number of fitting functions:  1444 (100.00%)
 Number of occupied orbitals:    38
 Number of virtual  orbitals:   450
 Number of Cholesky vectors:     11
 MP2 energy in ED [au]:          -0.121385629221
 CPU time [min]:   123.808                   Wall time [min]:     3.462
 
 MO:    38
 Number of atoms in domain:       4
 Number of atomic orbitals:     488
 Number of atoms for local DF:    4
 Number of fitting functions:  1444 (100.00%)
 Number of occupied orbitals:    38
 Number of virtual  orbitals:   450
 Number of Cholesky vectors:     11
 MP2 energy in ED [au]:          -0.127271447068
 CPU time [min]:   127.450                   Wall time [min]:     3.563
 
 **********************************************************************
 Dimensions of the extended domains:    Minimum / Average / Maximum
 
 Number of atoms in domain:                   4       4.0         4
 Number of atomic orbitals:                 488     488.0       488
 Number of fitting functions:              1444    1444.0      1444
 Number of occupied localized MOs:           24      32.1        38
 Number of PAOs:                            450     450.0       450
 
 **********************************************************************
 Final local correlation results
 
 Sum of pair energies [au]:                    -0.000442696472    (0.012%)
 Sum of energy corrections [au]:                0.000000000000    (0.000%)
 Sum of LMO contributions [au]:                -3.561206157545
 
 Reference energy [au]:                      -541.652024822784
 MP2 contribution [au]:                        -0.961645190585
 B2PLYP energy [au]:                         -542.613670013369
 
 **********************************************************************
  Time of manipulations in the EDs:      max CPU/Wall [s]  all CPU/Wall [min]
 
 PD construction & multipole pair E     230.47     6.76     3.84     0.11
 Construct MO basis of the ED             4.99     0.15     1.84     0.05
 (mu,nu|P) evaluation & trf 2 (ai|P)    208.89     5.85   106.19     2.96
 Evaluate MP2 energy of the ED           22.94     0.64    11.46     0.32
 Total of the above for all EDs         236.82     6.63   119.48     3.33
 
 **********************************************************************
 Maximum memory requirement [MB]:       
 
 PD construction & multipole pair E         20.0
 AO integral evaluation in the EDs        2959.4
 (mu,nu|P) evaluation & trf 2 (aI|P)      3584.7
 Evaluate MP2 energy in the EDs            340.0
 
 ************************ 2023-02-14 23:44:54 *************************
                      Normal termination of mrcc.
 **********************************************************************
