 **********************************************************************
                          MRCC program system
 **********************************************************************
 
                              Written by
     Mihaly Kallay, Peter R. Nagy, David Mester, Laszlo Gyevi-Nagy,
        Jozsef Csoka, P. Bernat Szabo, Zoltan Rolik, Gyula Samu,
     Jozsef Csontos, Bence Hegely, Adam Ganyecz, Istvan Ladjanszki,
       Lorant Szegedy, Bence Ladoczki, Klara Petrov, Mate Farkas,
                    Pal D. Mezei, and Reka A. Horvath
 
        Department of Physical Chemistry and Materials Science
            Budapest University of Technology and Economics
                  Budapest P.O.Box 91, H-1521 Hungary
 
                              www.mrcc.hu
 
                      Release date: March 18, 2022

 ************************ 2023-02-15 03:35:53 *************************
 Executing minp...

 Reading input from MINP...
 
 Input file:
 
calc=LB2PLYP
verbosity=3
mem=220GB
symm=off
unit=angs
scfiguess=small
scfalg=locfit1
lcorthr=normal
bpedo=0.99999
ECP=MCDHF-ECP-28
basis=bse_ACVQZ
basis_sm=def2-SVP
dfbasis_scf=def2-QZVPP-RI-JK
dfbasis_cor=bse_ACVQZ_mp2fit
core=0
unit=angs
geom=xyz
6
Ag6_2
Ag    -0.22155627    -0.77225692     0.63187260
Ag    -1.63684801    -0.57910561    -1.62358490
Ag    -1.98358381     1.22709558     0.47292128
Ag     0.47405280     1.55212998     1.74725388
Ag     2.33704250    -0.04359935     0.41836122
Ag     1.03089279    -1.38426369    -1.64682407

ghost=serialno


 
 
 Checking keyword combinations...
 
 Keywords:
 
 active=none
 agrid=ld0006-ld0590
 agrid_pssp=ld0006-ld0194
 agrid_pssp_sm=ld0006-ld0074
 basis=bse_acvqz
 basis_sm=def2-svp
 basopt=off
 bfbasis=none
 bfgsmem=10
 bfgstol=1.0d-3
 bpcompo=0.985
 bpcompv=0.98
 bpdfo=0.985
 bpocc=0.99999
 bppdo=0.999d0
 bppdv=0.98
 bpedo=0.99999
 bpedv=0.995d0
 calc=mp2
 ccmaxit=50
 ccprog=mrcc
 ccsdalg=disk
 ccsdmkl=seq
 ccsdrest=off
 ccsdthreads=2
 cctol=5
 charge=0
 cialg=direct
 ciguess=off
 cmpgrp=auto
 comprest=off
 core=corr
 corembed=off
 csapprox=off
 cvs=off
 dboc=off
 delocsomofact=
 dendec=cholesky
 dens=0
 dfalg=lineq
 dfbasis_cab=none
 dfbasis_cor=bse_acvqz_mp2fit
 dfbasis_scf=def2-qzvpp-ri-jk
 dfbasis_scf_sm=def2-qzvpp-ri-jk
 dfintran=drpa
 dft=b2plyp
 dhexc=adc(2)
 diag=david
 docc=
 domrad=10.d0
 drpaalg=auto
 dual=off
 dual_df=off
 ecp=mcdhf-ecp-28
 edisp=off
 edisp_embed=off
 embed=off
 etemp=300
 epert=none
 eps=
 espcharge=off
 excrad=1.0
 excrad_fin=0.100000000D-02
 fitting=coulomb
 fmm=off
 fmmord=8
 freq=off
 gamma=1.d0
 gauss=spher
 geom=xyz
 gopt=off
 ghost=serialno
 gtol=7
 grdens=off
 gridbatch_cos=2000
 grtol=10
 guido_ct=off
 hamilton=dc
 iface=none
 intalg=auto
 itol=10
 laptol=1.d-2
 lccoporder=trffirst
 lcorthr=normal
 lccrest=off
 lmp2dens=on
 lnoepso=0.d0
 lnoepsv=1e-6
 boysalg=jacobi
 localcc=2021
 localcorrsymm=off
 locintrf=directai
 mact=
 maxact=off
 maxdim=100
 maxex=0
 maxmicroit=100
 mcscfiguess=hf
 mem=220gb
 mmprog=
 molden=on
 mpitasks=1
 mulmet=3
 mult=
 nacto=0
 nactv=0
 naf_amp=1.d-2
 naf_cor=off
 naf_scf=off
 nafalg=albe
 naftyp=
 nchol=auto
 ndeps=1e-3
 nstate=1
 nsing=0
 nto=off
 ntrip=0
 occ=
 occri=off
 oniom=off
 oniom_eechg=off
 oniom_pcm=off
 oniom_qcorr=off
 optalg=
 optmaxit=50
 optetol=1e-6
 optex=0
 optgtol=1e-4
 optstol=1e-3
 orblocc=boys
 orbloce=off
 orbloco=boys
 orblocv=pao
 orblocguess=cholesky
 osveps=-1.d0
 ovirt=off
 ovltol=1e-7
 ovosnorb=80.0
 pcm=off
 popul=off
 pressure=100000
 pssp=off
 ptfreq=0.0
 ptthreads=2
 qro=off
 qscf=off
 qmmm=off
 redcost_exc=off
 redcost_tddft=0.985d0
 refdet=none
 rest=0
 rgrid=log3
 rism=off
 rohfcore=standard
 rohftype=semicanonical
 scfalg=locfit1
 scf_conv=difficult
 scfdamp=0.7d0
 scfdamp_mode=1
 scfdamp_end=3
 scfdamp_dampstep=0.d0
 scfdamp_dtol=0.0d0
 scfdamp_maxfact=0.7d0
 scfdamp_minfact=0.7d0
 scfdiis=on
 scfdiis_dtol=0.0d0
 scfdiis_end=50
 scfdiis_start=2
 scfdiis_step=1
 scfdiis_watch=off
 scfdiis_wrange=10
 scfdiis_wlimit=5
 scfdiis_delmax=2
 scfdtol=7
 scfext=10
 scfguessdens=
 scfiguess=small
 scfloc=pm
 scflshift=0.20
 scflshift_end=8
 scflshift_dtol=0.0
 scflshift_gaptol=0.20
 scfmaxit=50
 scftype=
 scftol=6
 scspe=1.d0
 scsph=1.d0
 scsps=1.2d0
 scsps_t=1.2d0
 scspt=0.33333333333333
 scspt_t=0.33333333333333
 scspv=1.d0
 spairtol=-1.d0
 sqmprog=
 subminp=top
 symm=0
 talg=lapl
 temp=298.15
 test=off
 theodore=off
 tlmo=0.999
 tpao=0.94
 tprint=off
 uncontract=off
 unit=angs
 usedisk=2
 verbosity=3
 wpairtol=1.d-5
 
 Calculating integrals for small-basis SCF...

 ************************ 2023-02-15 03:35:54 *************************
 Executing integ...

 Allocation of 220.0 Gbytes of memory...
 
 
 Number of atoms:                  6
 Charge:                           0
 Number of electrons:            114
 Number of core electrons:        48
 Spin multiplicity:                1
 
                 Cartesian coordinates [bohr]      Atomic mass [AMU]  Z
   1  Ag   -0.41868067   -1.45935408    1.19406616   106.905092      47
   2  Ag   -3.09319445   -1.09435100   -3.06813080   106.905092      47
   3  Ag   -3.74843015    2.31887458    0.89369170   106.905092      47
   4  Ag    0.89582996    2.93310057    3.30183130   106.905092      47
   5  Ag    4.41637027   -0.08239083    0.79058813   106.905092      47
   6  Ag    1.94810504   -2.61587926   -3.11204647   106.905092      47
 
 This molecule is an asymmetric top.
 
 Point group: C1  
 Computational point group: C1  
 
 Cartesian coordinates in standard orientation [bohr]
   1  Ag    0.00143544    0.00050128    1.93152776
   2  Ag   -2.15225016   -3.92291583   -0.39677863
   3  Ag    3.07587756   -3.25801623   -0.38845876
   4  Ag    4.06160112    1.91631073   -0.37259872
   5  Ag   -0.57121358    4.43217576   -0.40703467
   6  Ag   -4.41545039    0.83194429   -0.36665699
 
 Nuclear repulsion energy [au]:        912.082515426274
 
 
 Basis set information:
 
 Maximum angular momentum: i
 Maximum number of contracted Gaussians:   11
 Maximum number of primitive Gaussians:    13
 Spherical harmonic GTOs are used.
 
 
 Conventional basis set:
 
   1  Ag def2-svp [ 7s 6p 5d 1f | 5s 3p 2d 1f ]
   2  Ag def2-svp [ 7s 6p 5d 1f | 5s 3p 2d 1f ]
   3  Ag def2-svp [ 7s 6p 5d 1f | 5s 3p 2d 1f ]
   4  Ag def2-svp [ 7s 6p 5d 1f | 5s 3p 2d 1f ]
   5  Ag def2-svp [ 7s 6p 5d 1f | 5s 3p 2d 1f ]
   6  Ag def2-svp [ 7s 6p 5d 1f | 5s 3p 2d 1f ]
 
 Basis functions:
            1             2             3             4             5             6             7             8             9            10
    0    1Ag1s         1Ag2s         1Ag3s         1Ag4s         1Ag5s         1Ag1pz        1Ag1py        1Ag1px        1Ag2pz        1Ag2py    
    1    1Ag2px        1Ag3pz        1Ag3py        1Ag3px        1Ag1d-2       1Ag1d-1       1Ag1d0        1Ag1d+1       1Ag1d+2       1Ag2d-2   
    2    1Ag2d-1       1Ag2d0        1Ag2d+1       1Ag2d+2       1Ag1f-3       1Ag1f-2       1Ag1f-1       1Ag1f0        1Ag1f+1       1Ag1f+2   
    3    1Ag1f+3       2Ag1s         2Ag2s         2Ag3s         2Ag4s         2Ag5s         2Ag1pz        2Ag1py        2Ag1px        2Ag2pz    
    4    2Ag2py        2Ag2px        2Ag3pz        2Ag3py        2Ag3px        2Ag1d-2       2Ag1d-1       2Ag1d0        2Ag1d+1       2Ag1d+2   
    5    2Ag2d-2       2Ag2d-1       2Ag2d0        2Ag2d+1       2Ag2d+2       2Ag1f-3       2Ag1f-2       2Ag1f-1       2Ag1f0        2Ag1f+1   
    6    2Ag1f+2       2Ag1f+3       3Ag1s         3Ag2s         3Ag3s         3Ag4s         3Ag5s         3Ag1pz        3Ag1py        3Ag1px    
    7    3Ag2pz        3Ag2py        3Ag2px        3Ag3pz        3Ag3py        3Ag3px        3Ag1d-2       3Ag1d-1       3Ag1d0        3Ag1d+1   
    8    3Ag1d+2       3Ag2d-2       3Ag2d-1       3Ag2d0        3Ag2d+1       3Ag2d+2       3Ag1f-3       3Ag1f-2       3Ag1f-1       3Ag1f0    
    9    3Ag1f+1       3Ag1f+2       3Ag1f+3       4Ag1s         4Ag2s         4Ag3s         4Ag4s         4Ag5s         4Ag1pz        4Ag1py    
   10    4Ag1px        4Ag2pz        4Ag2py        4Ag2px        4Ag3pz        4Ag3py        4Ag3px        4Ag1d-2       4Ag1d-1       4Ag1d0    
   11    4Ag1d+1       4Ag1d+2       4Ag2d-2       4Ag2d-1       4Ag2d0        4Ag2d+1       4Ag2d+2       4Ag1f-3       4Ag1f-2       4Ag1f-1   
   12    4Ag1f0        4Ag1f+1       4Ag1f+2       4Ag1f+3       5Ag1s         5Ag2s         5Ag3s         5Ag4s         5Ag5s         5Ag1pz    
   13    5Ag1py        5Ag1px        5Ag2pz        5Ag2py        5Ag2px        5Ag3pz        5Ag3py        5Ag3px        5Ag1d-2       5Ag1d-1   
   14    5Ag1d0        5Ag1d+1       5Ag1d+2       5Ag2d-2       5Ag2d-1       5Ag2d0        5Ag2d+1       5Ag2d+2       5Ag1f-3       5Ag1f-2   
   15    5Ag1f-1       5Ag1f0        5Ag1f+1       5Ag1f+2       5Ag1f+3       6Ag1s         6Ag2s         6Ag3s         6Ag4s         6Ag5s     
   16    6Ag1pz        6Ag1py        6Ag1px        6Ag2pz        6Ag2py        6Ag2px        6Ag3pz        6Ag3py        6Ag3px        6Ag1d-2   
   17    6Ag1d-1       6Ag1d0        6Ag1d+1       6Ag1d+2       6Ag2d-2       6Ag2d-1       6Ag2d0        6Ag2d+1       6Ag2d+2       6Ag1f-3   
   18    6Ag1f-2       6Ag1f-1       6Ag1f0        6Ag1f+1       6Ag1f+2       6Ag1f+3   
 
 Maximum number of basis functions per shell:   10
 Total number of basis functions:    186
 
 
 Fitting basis set for the SCF calculation:
 
   1  Ag def2-qzvpp-ri-jk [ 13s 12p 10d 9f 6g 3h 2i | 11s 10p 9d 8f 6g 3h 2i ]
   2  Ag def2-qzvpp-ri-jk [ 13s 12p 10d 9f 6g 3h 2i | 11s 10p 9d 8f 6g 3h 2i ]
   3  Ag def2-qzvpp-ri-jk [ 13s 12p 10d 9f 6g 3h 2i | 11s 10p 9d 8f 6g 3h 2i ]
   4  Ag def2-qzvpp-ri-jk [ 13s 12p 10d 9f 6g 3h 2i | 11s 10p 9d 8f 6g 3h 2i ]
   5  Ag def2-qzvpp-ri-jk [ 13s 12p 10d 9f 6g 3h 2i | 11s 10p 9d 8f 6g 3h 2i ]
   6  Ag def2-qzvpp-ri-jk [ 13s 12p 10d 9f 6g 3h 2i | 11s 10p 9d 8f 6g 3h 2i ]
 
 Basis functions:
            1             2             3             4             5             6             7             8             9            10
    0    1Ag1s         1Ag2s         1Ag3s         1Ag4s         1Ag5s         1Ag6s         1Ag7s         1Ag8s         1Ag9s         1Ag10s    
    1    1Ag11s        1Ag1pz        1Ag1py        1Ag1px        1Ag2pz        1Ag2py        1Ag2px        1Ag3pz        1Ag3py        1Ag3px    
    2    1Ag4pz        1Ag4py        1Ag4px        1Ag5pz        1Ag5py        1Ag5px        1Ag6pz        1Ag6py        1Ag6px        1Ag7pz    
    3    1Ag7py        1Ag7px        1Ag8pz        1Ag8py        1Ag8px        1Ag9pz        1Ag9py        1Ag9px        1Ag10pz       1Ag10py   
    4    1Ag10px       1Ag1d-2       1Ag1d-1       1Ag1d0        1Ag1d+1       1Ag1d+2       1Ag2d-2       1Ag2d-1       1Ag2d0        1Ag2d+1   
    5    1Ag2d+2       1Ag3d-2       1Ag3d-1       1Ag3d0        1Ag3d+1       1Ag3d+2       1Ag4d-2       1Ag4d-1       1Ag4d0        1Ag4d+1   
    6    1Ag4d+2       1Ag5d-2       1Ag5d-1       1Ag5d0        1Ag5d+1       1Ag5d+2       1Ag6d-2       1Ag6d-1       1Ag6d0        1Ag6d+1   
    7    1Ag6d+2       1Ag7d-2       1Ag7d-1       1Ag7d0        1Ag7d+1       1Ag7d+2       1Ag8d-2       1Ag8d-1       1Ag8d0        1Ag8d+1   
    8    1Ag8d+2       1Ag9d-2       1Ag9d-1       1Ag9d0        1Ag9d+1       1Ag9d+2       1Ag1f-3       1Ag1f-2       1Ag1f-1       1Ag1f0    
    9    1Ag1f+1       1Ag1f+2       1Ag1f+3       1Ag2f-3       1Ag2f-2       1Ag2f-1       1Ag2f0        1Ag2f+1       1Ag2f+2       1Ag2f+3   
   10    1Ag3f-3       1Ag3f-2       1Ag3f-1       1Ag3f0        1Ag3f+1       1Ag3f+2       1Ag3f+3       1Ag4f-3       1Ag4f-2       1Ag4f-1   
   11    1Ag4f0        1Ag4f+1       1Ag4f+2       1Ag4f+3       1Ag5f-3       1Ag5f-2       1Ag5f-1       1Ag5f0        1Ag5f+1       1Ag5f+2   
   12    1Ag5f+3       1Ag6f-3       1Ag6f-2       1Ag6f-1       1Ag6f0        1Ag6f+1       1Ag6f+2       1Ag6f+3       1Ag7f-3       1Ag7f-2   
   13    1Ag7f-1       1Ag7f0        1Ag7f+1       1Ag7f+2       1Ag7f+3       1Ag8f-3       1Ag8f-2       1Ag8f-1       1Ag8f0        1Ag8f+1   
   14    1Ag8f+2       1Ag8f+3       1Ag1g-4       1Ag1g-3       1Ag1g-2       1Ag1g-1       1Ag1g0        1Ag1g+1       1Ag1g+2       1Ag1g+3   
   15    1Ag1g+4       1Ag2g-4       1Ag2g-3       1Ag2g-2       1Ag2g-1       1Ag2g0        1Ag2g+1       1Ag2g+2       1Ag2g+3       1Ag2g+4   
   16    1Ag3g-4       1Ag3g-3       1Ag3g-2       1Ag3g-1       1Ag3g0        1Ag3g+1       1Ag3g+2       1Ag3g+3       1Ag3g+4       1Ag4g-4   
   17    1Ag4g-3       1Ag4g-2       1Ag4g-1       1Ag4g0        1Ag4g+1       1Ag4g+2       1Ag4g+3       1Ag4g+4       1Ag5g-4       1Ag5g-3   
   18    1Ag5g-2       1Ag5g-1       1Ag5g0        1Ag5g+1       1Ag5g+2       1Ag5g+3       1Ag5g+4       1Ag6g-4       1Ag6g-3       1Ag6g-2   
   19    1Ag6g-1       1Ag6g0        1Ag6g+1       1Ag6g+2       1Ag6g+3       1Ag6g+4       1Ag1h-5       1Ag1h-4       1Ag1h-3       1Ag1h-2   
   20    1Ag1h-1       1Ag1h0        1Ag1h+1       1Ag1h+2       1Ag1h+3       1Ag1h+4       1Ag1h+5       1Ag2h-5       1Ag2h-4       1Ag2h-3   
   21    1Ag2h-2       1Ag2h-1       1Ag2h0        1Ag2h+1       1Ag2h+2       1Ag2h+3       1Ag2h+4       1Ag2h+5       1Ag3h-5       1Ag3h-4   
   22    1Ag3h-3       1Ag3h-2       1Ag3h-1       1Ag3h0        1Ag3h+1       1Ag3h+2       1Ag3h+3       1Ag3h+4       1Ag3h+5       1Ag1i-6   
   23    1Ag1i-5       1Ag1i-4       1Ag1i-3       1Ag1i-2       1Ag1i-1       1Ag1i0        1Ag1i+1       1Ag1i+2       1Ag1i+3       1Ag1i+4   
   24    1Ag1i+5       1Ag1i+6       1Ag2i-6       1Ag2i-5       1Ag2i-4       1Ag2i-3       1Ag2i-2       1Ag2i-1       1Ag2i0        1Ag2i+1   
   25    1Ag2i+2       1Ag2i+3       1Ag2i+4       1Ag2i+5       1Ag2i+6       2Ag1s         2Ag2s         2Ag3s         2Ag4s         2Ag5s     
   26    2Ag6s         2Ag7s         2Ag8s         2Ag9s         2Ag10s        2Ag11s        2Ag1pz        2Ag1py        2Ag1px        2Ag2pz    
   27    2Ag2py        2Ag2px        2Ag3pz        2Ag3py        2Ag3px        2Ag4pz        2Ag4py        2Ag4px        2Ag5pz        2Ag5py    
   28    2Ag5px        2Ag6pz        2Ag6py        2Ag6px        2Ag7pz        2Ag7py        2Ag7px        2Ag8pz        2Ag8py        2Ag8px    
   29    2Ag9pz        2Ag9py        2Ag9px        2Ag10pz       2Ag10py       2Ag10px       2Ag1d-2       2Ag1d-1       2Ag1d0        2Ag1d+1   
   30    2Ag1d+2       2Ag2d-2       2Ag2d-1       2Ag2d0        2Ag2d+1       2Ag2d+2       2Ag3d-2       2Ag3d-1       2Ag3d0        2Ag3d+1   
   31    2Ag3d+2       2Ag4d-2       2Ag4d-1       2Ag4d0        2Ag4d+1       2Ag4d+2       2Ag5d-2       2Ag5d-1       2Ag5d0        2Ag5d+1   
   32    2Ag5d+2       2Ag6d-2       2Ag6d-1       2Ag6d0        2Ag6d+1       2Ag6d+2       2Ag7d-2       2Ag7d-1       2Ag7d0        2Ag7d+1   
   33    2Ag7d+2       2Ag8d-2       2Ag8d-1       2Ag8d0        2Ag8d+1       2Ag8d+2       2Ag9d-2       2Ag9d-1       2Ag9d0        2Ag9d+1   
   34    2Ag9d+2       2Ag1f-3       2Ag1f-2       2Ag1f-1       2Ag1f0        2Ag1f+1       2Ag1f+2       2Ag1f+3       2Ag2f-3       2Ag2f-2   
   35    2Ag2f-1       2Ag2f0        2Ag2f+1       2Ag2f+2       2Ag2f+3       2Ag3f-3       2Ag3f-2       2Ag3f-1       2Ag3f0        2Ag3f+1   
   36    2Ag3f+2       2Ag3f+3       2Ag4f-3       2Ag4f-2       2Ag4f-1       2Ag4f0        2Ag4f+1       2Ag4f+2       2Ag4f+3       2Ag5f-3   
   37    2Ag5f-2       2Ag5f-1       2Ag5f0        2Ag5f+1       2Ag5f+2       2Ag5f+3       2Ag6f-3       2Ag6f-2       2Ag6f-1       2Ag6f0    
   38    2Ag6f+1       2Ag6f+2       2Ag6f+3       2Ag7f-3       2Ag7f-2       2Ag7f-1       2Ag7f0        2Ag7f+1       2Ag7f+2       2Ag7f+3   
   39    2Ag8f-3       2Ag8f-2       2Ag8f-1       2Ag8f0        2Ag8f+1       2Ag8f+2       2Ag8f+3       2Ag1g-4       2Ag1g-3       2Ag1g-2   
   40    2Ag1g-1       2Ag1g0        2Ag1g+1       2Ag1g+2       2Ag1g+3       2Ag1g+4       2Ag2g-4       2Ag2g-3       2Ag2g-2       2Ag2g-1   
   41    2Ag2g0        2Ag2g+1       2Ag2g+2       2Ag2g+3       2Ag2g+4       2Ag3g-4       2Ag3g-3       2Ag3g-2       2Ag3g-1       2Ag3g0    
   42    2Ag3g+1       2Ag3g+2       2Ag3g+3       2Ag3g+4       2Ag4g-4       2Ag4g-3       2Ag4g-2       2Ag4g-1       2Ag4g0        2Ag4g+1   
   43    2Ag4g+2       2Ag4g+3       2Ag4g+4       2Ag5g-4       2Ag5g-3       2Ag5g-2       2Ag5g-1       2Ag5g0        2Ag5g+1       2Ag5g+2   
   44    2Ag5g+3       2Ag5g+4       2Ag6g-4       2Ag6g-3       2Ag6g-2       2Ag6g-1       2Ag6g0        2Ag6g+1       2Ag6g+2       2Ag6g+3   
   45    2Ag6g+4       2Ag1h-5       2Ag1h-4       2Ag1h-3       2Ag1h-2       2Ag1h-1       2Ag1h0        2Ag1h+1       2Ag1h+2       2Ag1h+3   
   46    2Ag1h+4       2Ag1h+5       2Ag2h-5       2Ag2h-4       2Ag2h-3       2Ag2h-2       2Ag2h-1       2Ag2h0        2Ag2h+1       2Ag2h+2   
   47    2Ag2h+3       2Ag2h+4       2Ag2h+5       2Ag3h-5       2Ag3h-4       2Ag3h-3       2Ag3h-2       2Ag3h-1       2Ag3h0        2Ag3h+1   
   48    2Ag3h+2       2Ag3h+3       2Ag3h+4       2Ag3h+5       2Ag1i-6       2Ag1i-5       2Ag1i-4       2Ag1i-3       2Ag1i-2       2Ag1i-1   
   49    2Ag1i0        2Ag1i+1       2Ag1i+2       2Ag1i+3       2Ag1i+4       2Ag1i+5       2Ag1i+6       2Ag2i-6       2Ag2i-5       2Ag2i-4   
   50    2Ag2i-3       2Ag2i-2       2Ag2i-1       2Ag2i0        2Ag2i+1       2Ag2i+2       2Ag2i+3       2Ag2i+4       2Ag2i+5       2Ag2i+6   
   51    3Ag1s         3Ag2s         3Ag3s         3Ag4s         3Ag5s         3Ag6s         3Ag7s         3Ag8s         3Ag9s         3Ag10s    
   52    3Ag11s        3Ag1pz        3Ag1py        3Ag1px        3Ag2pz        3Ag2py        3Ag2px        3Ag3pz        3Ag3py        3Ag3px    
   53    3Ag4pz        3Ag4py        3Ag4px        3Ag5pz        3Ag5py        3Ag5px        3Ag6pz        3Ag6py        3Ag6px        3Ag7pz    
   54    3Ag7py        3Ag7px        3Ag8pz        3Ag8py        3Ag8px        3Ag9pz        3Ag9py        3Ag9px        3Ag10pz       3Ag10py   
   55    3Ag10px       3Ag1d-2       3Ag1d-1       3Ag1d0        3Ag1d+1       3Ag1d+2       3Ag2d-2       3Ag2d-1       3Ag2d0        3Ag2d+1   
   56    3Ag2d+2       3Ag3d-2       3Ag3d-1       3Ag3d0        3Ag3d+1       3Ag3d+2       3Ag4d-2       3Ag4d-1       3Ag4d0        3Ag4d+1   
   57    3Ag4d+2       3Ag5d-2       3Ag5d-1       3Ag5d0        3Ag5d+1       3Ag5d+2       3Ag6d-2       3Ag6d-1       3Ag6d0        3Ag6d+1   
   58    3Ag6d+2       3Ag7d-2       3Ag7d-1       3Ag7d0        3Ag7d+1       3Ag7d+2       3Ag8d-2       3Ag8d-1       3Ag8d0        3Ag8d+1   
   59    3Ag8d+2       3Ag9d-2       3Ag9d-1       3Ag9d0        3Ag9d+1       3Ag9d+2       3Ag1f-3       3Ag1f-2       3Ag1f-1       3Ag1f0    
   60    3Ag1f+1       3Ag1f+2       3Ag1f+3       3Ag2f-3       3Ag2f-2       3Ag2f-1       3Ag2f0        3Ag2f+1       3Ag2f+2       3Ag2f+3   
   61    3Ag3f-3       3Ag3f-2       3Ag3f-1       3Ag3f0        3Ag3f+1       3Ag3f+2       3Ag3f+3       3Ag4f-3       3Ag4f-2       3Ag4f-1   
   62    3Ag4f0        3Ag4f+1       3Ag4f+2       3Ag4f+3       3Ag5f-3       3Ag5f-2       3Ag5f-1       3Ag5f0        3Ag5f+1       3Ag5f+2   
   63    3Ag5f+3       3Ag6f-3       3Ag6f-2       3Ag6f-1       3Ag6f0        3Ag6f+1       3Ag6f+2       3Ag6f+3       3Ag7f-3       3Ag7f-2   
   64    3Ag7f-1       3Ag7f0        3Ag7f+1       3Ag7f+2       3Ag7f+3       3Ag8f-3       3Ag8f-2       3Ag8f-1       3Ag8f0        3Ag8f+1   
   65    3Ag8f+2       3Ag8f+3       3Ag1g-4       3Ag1g-3       3Ag1g-2       3Ag1g-1       3Ag1g0        3Ag1g+1       3Ag1g+2       3Ag1g+3   
   66    3Ag1g+4       3Ag2g-4       3Ag2g-3       3Ag2g-2       3Ag2g-1       3Ag2g0        3Ag2g+1       3Ag2g+2       3Ag2g+3       3Ag2g+4   
   67    3Ag3g-4       3Ag3g-3       3Ag3g-2       3Ag3g-1       3Ag3g0        3Ag3g+1       3Ag3g+2       3Ag3g+3       3Ag3g+4       3Ag4g-4   
   68    3Ag4g-3       3Ag4g-2       3Ag4g-1       3Ag4g0        3Ag4g+1       3Ag4g+2       3Ag4g+3       3Ag4g+4       3Ag5g-4       3Ag5g-3   
   69    3Ag5g-2       3Ag5g-1       3Ag5g0        3Ag5g+1       3Ag5g+2       3Ag5g+3       3Ag5g+4       3Ag6g-4       3Ag6g-3       3Ag6g-2   
   70    3Ag6g-1       3Ag6g0        3Ag6g+1       3Ag6g+2       3Ag6g+3       3Ag6g+4       3Ag1h-5       3Ag1h-4       3Ag1h-3       3Ag1h-2   
   71    3Ag1h-1       3Ag1h0        3Ag1h+1       3Ag1h+2       3Ag1h+3       3Ag1h+4       3Ag1h+5       3Ag2h-5       3Ag2h-4       3Ag2h-3   
   72    3Ag2h-2       3Ag2h-1       3Ag2h0        3Ag2h+1       3Ag2h+2       3Ag2h+3       3Ag2h+4       3Ag2h+5       3Ag3h-5       3Ag3h-4   
   73    3Ag3h-3       3Ag3h-2       3Ag3h-1       3Ag3h0        3Ag3h+1       3Ag3h+2       3Ag3h+3       3Ag3h+4       3Ag3h+5       3Ag1i-6   
   74    3Ag1i-5       3Ag1i-4       3Ag1i-3       3Ag1i-2       3Ag1i-1       3Ag1i0        3Ag1i+1       3Ag1i+2       3Ag1i+3       3Ag1i+4   
   75    3Ag1i+5       3Ag1i+6       3Ag2i-6       3Ag2i-5       3Ag2i-4       3Ag2i-3       3Ag2i-2       3Ag2i-1       3Ag2i0        3Ag2i+1   
   76    3Ag2i+2       3Ag2i+3       3Ag2i+4       3Ag2i+5       3Ag2i+6       4Ag1s         4Ag2s         4Ag3s         4Ag4s         4Ag5s     
   77    4Ag6s         4Ag7s         4Ag8s         4Ag9s         4Ag10s        4Ag11s        4Ag1pz        4Ag1py        4Ag1px        4Ag2pz    
   78    4Ag2py        4Ag2px        4Ag3pz        4Ag3py        4Ag3px        4Ag4pz        4Ag4py        4Ag4px        4Ag5pz        4Ag5py    
   79    4Ag5px        4Ag6pz        4Ag6py        4Ag6px        4Ag7pz        4Ag7py        4Ag7px        4Ag8pz        4Ag8py        4Ag8px    
   80    4Ag9pz        4Ag9py        4Ag9px        4Ag10pz       4Ag10py       4Ag10px       4Ag1d-2       4Ag1d-1       4Ag1d0        4Ag1d+1   
   81    4Ag1d+2       4Ag2d-2       4Ag2d-1       4Ag2d0        4Ag2d+1       4Ag2d+2       4Ag3d-2       4Ag3d-1       4Ag3d0        4Ag3d+1   
   82    4Ag3d+2       4Ag4d-2       4Ag4d-1       4Ag4d0        4Ag4d+1       4Ag4d+2       4Ag5d-2       4Ag5d-1       4Ag5d0        4Ag5d+1   
   83    4Ag5d+2       4Ag6d-2       4Ag6d-1       4Ag6d0        4Ag6d+1       4Ag6d+2       4Ag7d-2       4Ag7d-1       4Ag7d0        4Ag7d+1   
   84    4Ag7d+2       4Ag8d-2       4Ag8d-1       4Ag8d0        4Ag8d+1       4Ag8d+2       4Ag9d-2       4Ag9d-1       4Ag9d0        4Ag9d+1   
   85    4Ag9d+2       4Ag1f-3       4Ag1f-2       4Ag1f-1       4Ag1f0        4Ag1f+1       4Ag1f+2       4Ag1f+3       4Ag2f-3       4Ag2f-2   
   86    4Ag2f-1       4Ag2f0        4Ag2f+1       4Ag2f+2       4Ag2f+3       4Ag3f-3       4Ag3f-2       4Ag3f-1       4Ag3f0        4Ag3f+1   
   87    4Ag3f+2       4Ag3f+3       4Ag4f-3       4Ag4f-2       4Ag4f-1       4Ag4f0        4Ag4f+1       4Ag4f+2       4Ag4f+3       4Ag5f-3   
   88    4Ag5f-2       4Ag5f-1       4Ag5f0        4Ag5f+1       4Ag5f+2       4Ag5f+3       4Ag6f-3       4Ag6f-2       4Ag6f-1       4Ag6f0    
   89    4Ag6f+1       4Ag6f+2       4Ag6f+3       4Ag7f-3       4Ag7f-2       4Ag7f-1       4Ag7f0        4Ag7f+1       4Ag7f+2       4Ag7f+3   
   90    4Ag8f-3       4Ag8f-2       4Ag8f-1       4Ag8f0        4Ag8f+1       4Ag8f+2       4Ag8f+3       4Ag1g-4       4Ag1g-3       4Ag1g-2   
   91    4Ag1g-1       4Ag1g0        4Ag1g+1       4Ag1g+2       4Ag1g+3       4Ag1g+4       4Ag2g-4       4Ag2g-3       4Ag2g-2       4Ag2g-1   
   92    4Ag2g0        4Ag2g+1       4Ag2g+2       4Ag2g+3       4Ag2g+4       4Ag3g-4       4Ag3g-3       4Ag3g-2       4Ag3g-1       4Ag3g0    
   93    4Ag3g+1       4Ag3g+2       4Ag3g+3       4Ag3g+4       4Ag4g-4       4Ag4g-3       4Ag4g-2       4Ag4g-1       4Ag4g0        4Ag4g+1   
   94    4Ag4g+2       4Ag4g+3       4Ag4g+4       4Ag5g-4       4Ag5g-3       4Ag5g-2       4Ag5g-1       4Ag5g0        4Ag5g+1       4Ag5g+2   
   95    4Ag5g+3       4Ag5g+4       4Ag6g-4       4Ag6g-3       4Ag6g-2       4Ag6g-1       4Ag6g0        4Ag6g+1       4Ag6g+2       4Ag6g+3   
   96    4Ag6g+4       4Ag1h-5       4Ag1h-4       4Ag1h-3       4Ag1h-2       4Ag1h-1       4Ag1h0        4Ag1h+1       4Ag1h+2       4Ag1h+3   
   97    4Ag1h+4       4Ag1h+5       4Ag2h-5       4Ag2h-4       4Ag2h-3       4Ag2h-2       4Ag2h-1       4Ag2h0        4Ag2h+1       4Ag2h+2   
   98    4Ag2h+3       4Ag2h+4       4Ag2h+5       4Ag3h-5       4Ag3h-4       4Ag3h-3       4Ag3h-2       4Ag3h-1       4Ag3h0        4Ag3h+1   
   99    4Ag3h+2       4Ag3h+3       4Ag3h+4       4Ag3h+5       4Ag1i-6       4Ag1i-5       4Ag1i-4       4Ag1i-3       4Ag1i-2       4Ag1i-1   
  100    4Ag1i0        4Ag1i+1       4Ag1i+2       4Ag1i+3       4Ag1i+4       4Ag1i+5       4Ag1i+6       4Ag2i-6       4Ag2i-5       4Ag2i-4   
  101    4Ag2i-3       4Ag2i-2       4Ag2i-1       4Ag2i0        4Ag2i+1       4Ag2i+2       4Ag2i+3       4Ag2i+4       4Ag2i+5       4Ag2i+6   
  102    5Ag1s         5Ag2s         5Ag3s         5Ag4s         5Ag5s         5Ag6s         5Ag7s         5Ag8s         5Ag9s         5Ag10s    
  103    5Ag11s        5Ag1pz        5Ag1py        5Ag1px        5Ag2pz        5Ag2py        5Ag2px        5Ag3pz        5Ag3py        5Ag3px    
  104    5Ag4pz        5Ag4py        5Ag4px        5Ag5pz        5Ag5py        5Ag5px        5Ag6pz        5Ag6py        5Ag6px        5Ag7pz    
  105    5Ag7py        5Ag7px        5Ag8pz        5Ag8py        5Ag8px        5Ag9pz        5Ag9py        5Ag9px        5Ag10pz       5Ag10py   
  106    5Ag10px       5Ag1d-2       5Ag1d-1       5Ag1d0        5Ag1d+1       5Ag1d+2       5Ag2d-2       5Ag2d-1       5Ag2d0        5Ag2d+1   
  107    5Ag2d+2       5Ag3d-2       5Ag3d-1       5Ag3d0        5Ag3d+1       5Ag3d+2       5Ag4d-2       5Ag4d-1       5Ag4d0        5Ag4d+1   
  108    5Ag4d+2       5Ag5d-2       5Ag5d-1       5Ag5d0        5Ag5d+1       5Ag5d+2       5Ag6d-2       5Ag6d-1       5Ag6d0        5Ag6d+1   
  109    5Ag6d+2       5Ag7d-2       5Ag7d-1       5Ag7d0        5Ag7d+1       5Ag7d+2       5Ag8d-2       5Ag8d-1       5Ag8d0        5Ag8d+1   
  110    5Ag8d+2       5Ag9d-2       5Ag9d-1       5Ag9d0        5Ag9d+1       5Ag9d+2       5Ag1f-3       5Ag1f-2       5Ag1f-1       5Ag1f0    
  111    5Ag1f+1       5Ag1f+2       5Ag1f+3       5Ag2f-3       5Ag2f-2       5Ag2f-1       5Ag2f0        5Ag2f+1       5Ag2f+2       5Ag2f+3   
  112    5Ag3f-3       5Ag3f-2       5Ag3f-1       5Ag3f0        5Ag3f+1       5Ag3f+2       5Ag3f+3       5Ag4f-3       5Ag4f-2       5Ag4f-1   
  113    5Ag4f0        5Ag4f+1       5Ag4f+2       5Ag4f+3       5Ag5f-3       5Ag5f-2       5Ag5f-1       5Ag5f0        5Ag5f+1       5Ag5f+2   
  114    5Ag5f+3       5Ag6f-3       5Ag6f-2       5Ag6f-1       5Ag6f0        5Ag6f+1       5Ag6f+2       5Ag6f+3       5Ag7f-3       5Ag7f-2   
  115    5Ag7f-1       5Ag7f0        5Ag7f+1       5Ag7f+2       5Ag7f+3       5Ag8f-3       5Ag8f-2       5Ag8f-1       5Ag8f0        5Ag8f+1   
  116    5Ag8f+2       5Ag8f+3       5Ag1g-4       5Ag1g-3       5Ag1g-2       5Ag1g-1       5Ag1g0        5Ag1g+1       5Ag1g+2       5Ag1g+3   
  117    5Ag1g+4       5Ag2g-4       5Ag2g-3       5Ag2g-2       5Ag2g-1       5Ag2g0        5Ag2g+1       5Ag2g+2       5Ag2g+3       5Ag2g+4   
  118    5Ag3g-4       5Ag3g-3       5Ag3g-2       5Ag3g-1       5Ag3g0        5Ag3g+1       5Ag3g+2       5Ag3g+3       5Ag3g+4       5Ag4g-4   
  119    5Ag4g-3       5Ag4g-2       5Ag4g-1       5Ag4g0        5Ag4g+1       5Ag4g+2       5Ag4g+3       5Ag4g+4       5Ag5g-4       5Ag5g-3   
  120    5Ag5g-2       5Ag5g-1       5Ag5g0        5Ag5g+1       5Ag5g+2       5Ag5g+3       5Ag5g+4       5Ag6g-4       5Ag6g-3       5Ag6g-2   
  121    5Ag6g-1       5Ag6g0        5Ag6g+1       5Ag6g+2       5Ag6g+3       5Ag6g+4       5Ag1h-5       5Ag1h-4       5Ag1h-3       5Ag1h-2   
  122    5Ag1h-1       5Ag1h0        5Ag1h+1       5Ag1h+2       5Ag1h+3       5Ag1h+4       5Ag1h+5       5Ag2h-5       5Ag2h-4       5Ag2h-3   
  123    5Ag2h-2       5Ag2h-1       5Ag2h0        5Ag2h+1       5Ag2h+2       5Ag2h+3       5Ag2h+4       5Ag2h+5       5Ag3h-5       5Ag3h-4   
  124    5Ag3h-3       5Ag3h-2       5Ag3h-1       5Ag3h0        5Ag3h+1       5Ag3h+2       5Ag3h+3       5Ag3h+4       5Ag3h+5       5Ag1i-6   
  125    5Ag1i-5       5Ag1i-4       5Ag1i-3       5Ag1i-2       5Ag1i-1       5Ag1i0        5Ag1i+1       5Ag1i+2       5Ag1i+3       5Ag1i+4   
  126    5Ag1i+5       5Ag1i+6       5Ag2i-6       5Ag2i-5       5Ag2i-4       5Ag2i-3       5Ag2i-2       5Ag2i-1       5Ag2i0        5Ag2i+1   
  127    5Ag2i+2       5Ag2i+3       5Ag2i+4       5Ag2i+5       5Ag2i+6       6Ag1s         6Ag2s         6Ag3s         6Ag4s         6Ag5s     
  128    6Ag6s         6Ag7s         6Ag8s         6Ag9s         6Ag10s        6Ag11s        6Ag1pz        6Ag1py        6Ag1px        6Ag2pz    
  129    6Ag2py        6Ag2px        6Ag3pz        6Ag3py        6Ag3px        6Ag4pz        6Ag4py        6Ag4px        6Ag5pz        6Ag5py    
  130    6Ag5px        6Ag6pz        6Ag6py        6Ag6px        6Ag7pz        6Ag7py        6Ag7px        6Ag8pz        6Ag8py        6Ag8px    
  131    6Ag9pz        6Ag9py        6Ag9px        6Ag10pz       6Ag10py       6Ag10px       6Ag1d-2       6Ag1d-1       6Ag1d0        6Ag1d+1   
  132    6Ag1d+2       6Ag2d-2       6Ag2d-1       6Ag2d0        6Ag2d+1       6Ag2d+2       6Ag3d-2       6Ag3d-1       6Ag3d0        6Ag3d+1   
  133    6Ag3d+2       6Ag4d-2       6Ag4d-1       6Ag4d0        6Ag4d+1       6Ag4d+2       6Ag5d-2       6Ag5d-1       6Ag5d0        6Ag5d+1   
  134    6Ag5d+2       6Ag6d-2       6Ag6d-1       6Ag6d0        6Ag6d+1       6Ag6d+2       6Ag7d-2       6Ag7d-1       6Ag7d0        6Ag7d+1   
  135    6Ag7d+2       6Ag8d-2       6Ag8d-1       6Ag8d0        6Ag8d+1       6Ag8d+2       6Ag9d-2       6Ag9d-1       6Ag9d0        6Ag9d+1   
  136    6Ag9d+2       6Ag1f-3       6Ag1f-2       6Ag1f-1       6Ag1f0        6Ag1f+1       6Ag1f+2       6Ag1f+3       6Ag2f-3       6Ag2f-2   
  137    6Ag2f-1       6Ag2f0        6Ag2f+1       6Ag2f+2       6Ag2f+3       6Ag3f-3       6Ag3f-2       6Ag3f-1       6Ag3f0        6Ag3f+1   
  138    6Ag3f+2       6Ag3f+3       6Ag4f-3       6Ag4f-2       6Ag4f-1       6Ag4f0        6Ag4f+1       6Ag4f+2       6Ag4f+3       6Ag5f-3   
  139    6Ag5f-2       6Ag5f-1       6Ag5f0        6Ag5f+1       6Ag5f+2       6Ag5f+3       6Ag6f-3       6Ag6f-2       6Ag6f-1       6Ag6f0    
  140    6Ag6f+1       6Ag6f+2       6Ag6f+3       6Ag7f-3       6Ag7f-2       6Ag7f-1       6Ag7f0        6Ag7f+1       6Ag7f+2       6Ag7f+3   
  141    6Ag8f-3       6Ag8f-2       6Ag8f-1       6Ag8f0        6Ag8f+1       6Ag8f+2       6Ag8f+3       6Ag1g-4       6Ag1g-3       6Ag1g-2   
  142    6Ag1g-1       6Ag1g0        6Ag1g+1       6Ag1g+2       6Ag1g+3       6Ag1g+4       6Ag2g-4       6Ag2g-3       6Ag2g-2       6Ag2g-1   
  143    6Ag2g0        6Ag2g+1       6Ag2g+2       6Ag2g+3       6Ag2g+4       6Ag3g-4       6Ag3g-3       6Ag3g-2       6Ag3g-1       6Ag3g0    
  144    6Ag3g+1       6Ag3g+2       6Ag3g+3       6Ag3g+4       6Ag4g-4       6Ag4g-3       6Ag4g-2       6Ag4g-1       6Ag4g0        6Ag4g+1   
  145    6Ag4g+2       6Ag4g+3       6Ag4g+4       6Ag5g-4       6Ag5g-3       6Ag5g-2       6Ag5g-1       6Ag5g0        6Ag5g+1       6Ag5g+2   
  146    6Ag5g+3       6Ag5g+4       6Ag6g-4       6Ag6g-3       6Ag6g-2       6Ag6g-1       6Ag6g0        6Ag6g+1       6Ag6g+2       6Ag6g+3   
  147    6Ag6g+4       6Ag1h-5       6Ag1h-4       6Ag1h-3       6Ag1h-2       6Ag1h-1       6Ag1h0        6Ag1h+1       6Ag1h+2       6Ag1h+3   
  148    6Ag1h+4       6Ag1h+5       6Ag2h-5       6Ag2h-4       6Ag2h-3       6Ag2h-2       6Ag2h-1       6Ag2h0        6Ag2h+1       6Ag2h+2   
  149    6Ag2h+3       6Ag2h+4       6Ag2h+5       6Ag3h-5       6Ag3h-4       6Ag3h-3       6Ag3h-2       6Ag3h-1       6Ag3h0        6Ag3h+1   
  150    6Ag3h+2       6Ag3h+3       6Ag3h+4       6Ag3h+5       6Ag1i-6       6Ag1i-5       6Ag1i-4       6Ag1i-3       6Ag1i-2       6Ag1i-1   
  151    6Ag1i0        6Ag1i+1       6Ag1i+2       6Ag1i+3       6Ag1i+4       6Ag1i+5       6Ag1i+6       6Ag2i-6       6Ag2i-5       6Ag2i-4   
  152    6Ag2i-3       6Ag2i-2       6Ag2i-1       6Ag2i0        6Ag2i+1       6Ag2i+2       6Ag2i+3       6Ag2i+4       6Ag2i+5       6Ag2i+6   
 
 Maximum number of basis functions per shell:   56
 Total number of basis functions:   1530
 
 
 Effective core potentials:
 
   1  Ag mcdhf-ecp-28        
   2  Ag mcdhf-ecp-28        
   3  Ag mcdhf-ecp-28        
   4  Ag mcdhf-ecp-28        
   5  Ag mcdhf-ecp-28        
   6  Ag mcdhf-ecp-28        
 
 Initializing the SAD routines for the initial guess...
 Checking the files required for the initial guess...
 Density files have not been found for the initial guess.
 Generating SCFDENSITIES.Ag.def2-svp.0
 CPU time [min]:     0.119                   Wall time [min]:     0.177
 
 Character table for point group C1:
 
          E  
    A     1
 
 Number of basis functions per irrep:
    A     186
 
 
 Density functional: B2PLYP
 Constructing integration grid for DFT...
 Angular integration grid: adaptive 590-point Lebedev quadrature
 Radial integration grid: Log3 quadrature
 Total number of grid points: 140129      
 CPU time [min]:     1.507                   Wall time [min]:     0.217
 
 Calculation of overlap integrals...
 CPU time [min]:     1.511                   Wall time [min]:     0.217
 
 Calculation of the square root of the overlap matrix...
 Minimum eigenvalue of the overlap matrix: 0.790065E-03
 CPU time [min]:     1.544                   Wall time [min]:     0.219
 
 Calculation of kinetic energy integrals...
 CPU time [min]:     1.546                   Wall time [min]:     0.219
 Calculation of dipole moment integrals...
 CPU time [min]:     1.547                   Wall time [min]:     0.219
 Calculation of nuclear attraction integrals...
 CPU time [min]:     1.550                   Wall time [min]:     0.219
 Calculation of core potential integrals...
 CPU time [min]:     1.769                   Wall time [min]:     0.326
 
 Calculation of prescreening integrals...
 CPU time [min]:     2.088                   Wall time [min]:     0.335
 
 Calculation of two-center Coulomb integrals...
   1% done.
  12% done.
  23% done.
  35% done.
  48% done.
  63% done.
  74% done.
  86% done.
  97% done.
 100% done.
 CPU time [min]:     2.184                   Wall time [min]:     0.338
 
 Cholesky decomposition of the two-center matrix...
 Reciprocal of the condition number:  0.144522E-05
 CPU time [min]:     2.284                   Wall time [min]:     0.341
 
 
 Running small-basis SCF...

 ************************ 2023-02-15 03:36:15 *************************
 Executing scf...

 @scfsetup: integrals calculated directly
            mrcc/integ direct run
 @scfsetup: calculating on full matrices
            not using symmetry adapted basis
 @scfsetup: diis switched on
 @scfsetup: number of steps to extrapolate from  10
 @scfsetup: tolerance in energy deviation    0.100000E-05
            tolerance in density deviation    0.100000E-06
 @scfsetup: maximum number of iterations:  50
 @scfsetup: restricted closed shell hf calc
 @scfsetup: starting scf from superposition of atomic densities
 @scfsetup: occupation set:
            from initial orbitals
 @scfsetup: Parameter-set for SCF acceleration: difficult
 @scfsetup: diis runs from iteration:   2
 @scfsetup: diis runs to iteration:  50
 @scfsetup: diis runs in every iteration
 @scfsetup: diiswatch is disabled                   
 @scfsetup: diis dtol criteria to switch on:      0.0000E+00
           (or the iteration number below is reached)
 @scfsetup: static damping scheme
            iteration step criteria to turn damping off: 3
 @scfsetup: dynamic level shifting
            tolarance in HOMO-LUMO gap:  0.200
            tolarance in density deviation:     0.0000E+00
            iteration step criteria to turn level shifting off: 8
 Allocation of 220.0 Gbytes of memory...
 ======================================================================
 ITERATION STEP   1
 CPU time [min]:     0.026                   Wall time [min]:     0.005
 

 SCF control                  : initial
 Damping factor/level shift   : 0.700/0.200
 DIIS [start/end/frequency]   :   2 / 50 /  1

 Constructing Fock-matrix...
 
 Pipek-Mezey localization...
 Step  Convergence
   1   4.105926782969
   2   4.058035025925
   3   0.042639616229
   4   0.000022465084
   5   0.000012336249
   6   0.000007648693
   7   0.000007256147
   8   0.000011646234
   9   0.000012743326
  10   0.000007590215
  11   0.000011031113
  12   0.000012842296
  13   0.000007546069
  14   0.000007182614
  15   0.000011519904
  16   0.000012601624
  17   0.000007495933
  18   0.000007123652
  19   0.000007004598
  20   0.000011069763
  21   0.000012517952
  22   0.000012230230
  23   0.000012212656
  24   0.000007351255
  25   0.000006971026
  26   0.000011157460
  27   0.000012174398
  28   0.000007228071
  29   0.000010472573
  30   0.000007374098
  31   0.000006851420
  32   0.000010919032
  33   0.000011845792
  34   0.000007032253
  35   0.000010178215
  36   0.000007161055
  37   0.000010030664
  38   0.000007099042
  39   0.000006579343
  40   0.000010470709
  41   0.000011338849
  42   0.000011118981
  43   0.000006685034
  44   0.000009644810
  45   0.000006780161
  46   0.000006285994
  47   0.000006120583
  48   0.000009596140
  49   0.000010821743
  50   0.000006360500
  51   0.000006021098
  52   0.000009599672
  53   0.000010434349
  54   0.000010201211
  55   0.000010122071
  56   0.000010024247
  57   0.000009927112
  58   0.000005946056
  59   0.000008560356
  60   0.000009892568
  61   0.000009534906
  62   0.000005727452
  63   0.000005402581
  64   0.000008595854
  65   0.000005648665
  66   0.000008000855
  67   0.000005627893
  68   0.000005200041
  69   0.000005049287
  70   0.000007891667
  71   0.000008873225
  72   0.000008592817
  73   0.000005151067
  74   0.000004853588
  75   0.000004736678
  76   0.000004680617
  77   0.000004631467
  78   0.000007330080
  79   0.000008152109
  80   0.000007902955
  81   0.000007817022
  82   0.000007711458
  83   0.000007608719
  84   0.000004545792
  85   0.000006522619
  86   0.000007513699
  87   0.000004369462
  88   0.000004121478
  89   0.000006540676
  90   0.000007074742
  91   0.000006881682
  92   0.000004115014
  93   0.000003870575
  94   0.000003771518
  95   0.000003720028
  96   0.000005909871
  97   0.000006505176
  98   0.000006302904
  99   0.000003767722
 100   0.000005396279
 101   0.000003774092
 102   0.000005239271
 103   0.000006060199
 104   0.000005800361
 105   0.000003471345
 106   0.000003261540
 107   0.000005164790
 108   0.000003382348
 109   0.000003147413
 110   0.000004975506
 111   0.000005355475
 112   0.000003151750
 113   0.000002963847
 114   0.000004692044
 115   0.000003072680
 116   0.000002857446
 117   0.000004514745
 118   0.000002947838
 119   0.000002742219
 120   0.000004332568
 121   0.000004660398
 122   0.000002741014
 123   0.000002575896
 124   0.000004074788
 125   0.000004393894
 126   0.000004261483
 127   0.000002542708
 128   0.000002386026
 129   0.000002320389
 130   0.000002283868
 131   0.000003617987
 132   0.000003971691
 133   0.000002326158
 134   0.000002185570
 135   0.000002125699
 136   0.000002091861
 137   0.000002061596
 138   0.000002033878
 139   0.000002006294
 140   0.000001979161
 141   0.000003123634
 142   0.000002094096
 143   0.000001938648
 144   0.000001877341
 145   0.000001845183
 146   0.000001817485
 147   0.000002858852
 148   0.000001922961
 149   0.000001778876
 150   0.000002803429
 151   0.000003007925
 152   0.000002915016
 153   0.000001737962
 154   0.000001628980
 155   0.000001582659
 156   0.000002463326
 157   0.000001670045
 158   0.000001542492
 159   0.000001492332
 160   0.000002316727
 161   0.000002586660
 162   0.000002487074
 163   0.000001483706
 164   0.000001390069
 165   0.000001350163
 166   0.000002100474
 167   0.000001423835
 168   0.000001983950
 169   0.000001390882
 170   0.000001276173
 171   0.000001232238
 172   0.000001910210
 173   0.000001297411
 174   0.000001806229
 175   0.000002079317
 176   0.000001202769
 177   0.000001720997
 178   0.000001200174
 179   0.000001658485
 180   0.000001164204
 181   0.000001604868
 182   0.000001127070
 183   0.000001033366
 184   0.000000997359
 CPU time [min]:     0.266                   Wall time [min]:     0.012
 
 Constructing local fitting domains...
 Maximum number of atoms in fitting domains:    6
 Average number of atoms in fitting domains:    6.0
 
 First step of Coulomb + first step of exchange...
 Exchange contribution is evaluated for MOs 1 to 57.
   1% done.
  13% done.
  25% done.
  40% done.
  55% done.
  70% done.
  83% done.
 100% done.
 CPU time [min]:     0.781                   Wall time [min]:     0.027
 
 Fitting and assembly step of exchange...
 CPU time [min]:     0.814                   Wall time [min]:     0.028
 
 Second step of Coulomb...
   1% done.
  13% done.
  25% done.
  40% done.
  55% done.
  70% done.
  83% done.
 100% done.
 CPU time [min]:     0.895                   Wall time [min]:     0.031
 
 Calculating the exchange-correlation matrix...
                   0.4700*B88 [au]:    -39.574009302304
                   0.7300*LYP [au]:     -3.208704459040
 Exchange-correlation energy  [au]:    -42.782713761344
 CPU time [min]:     1.450                   Wall time [min]:     0.061
 
 Coulomb energy + HF exchange [au]:   1667.527809583889
 Gradient norm:      2.0988E+00
 RMS of [F,P]:                                         0.02344326627156
 RMS of difference density:                            0.00870680582147
 Gap [au]:  0.08726558
 ALPHA OCC:  57
 BETA  OCC:  57
 
 ***KOHN-SHAM ENERGY IN STEP   1 IS          -877.5948673233078807 [AU]
 ======================================================================
 ITERATION STEP   2
 CPU time [min]:     1.472                   Wall time [min]:     0.062
 

 SCF control                  : diis+damping
 Damping factor/level shift   : 0.700/0.200
 DIIS [start/end/frequency]   :   2 / 50 /  1

 Constructing Fock-matrix...
 
 Pipek-Mezey localization...
 Step  Convergence
   1  14.244888088734
   2   7.245572784018
   3   0.299304419855
   4   0.000830563005
   5   0.000002588685
   6   0.000002881823
   7   0.000002062403
   8   0.000001875666
   9   0.000001802598
  10   0.000001764016
  11   0.000002776455
  12   0.000003024099
  13   0.000001768202
  14   0.000002517585
  15   0.000002867982
  16   0.000002729128
  17   0.000002674316
  18   0.000002611628
  19   0.000002551648
  20   0.000001516611
  21   0.000001417223
  22   0.000001372295
  23   0.000002123630
  24   0.000001435254
  25   0.000001321684
  26   0.000002068474
  27   0.000001344413
  28   0.000001244618
  29   0.000001201639
  30   0.000001856161
  31   0.000002058245
  32   0.000001198761
  33   0.000001121575
  34   0.000001759395
  35   0.000001883648
  36   0.000001814407
  37   0.000001079838
  38   0.000001532294
  39   0.000001065991
  40   0.000000976056
 CPU time [min]:     1.548                   Wall time [min]:     0.064
 
 Constructing local fitting domains...
 Maximum number of atoms in fitting domains:    6
 Average number of atoms in fitting domains:    6.0
 
 First step of Coulomb + first step of exchange...
 Exchange contribution is evaluated for MOs 1 to 57.
   1% done.
  13% done.
  25% done.
  40% done.
  55% done.
  70% done.
  83% done.
 100% done.
 CPU time [min]:     1.830                   Wall time [min]:     0.072
 
 Fitting and assembly step of exchange...
 CPU time [min]:     1.860                   Wall time [min]:     0.073
 
 Second step of Coulomb...
   1% done.
  13% done.
  25% done.
  40% done.
  55% done.
  70% done.
  83% done.
 100% done.
 CPU time [min]:     1.935                   Wall time [min]:     0.075
 
 Calculating the exchange-correlation matrix...
                   0.4700*B88 [au]:    -38.693728393676
                   0.7300*LYP [au]:     -3.192091050721
 Exchange-correlation energy  [au]:    -41.885819444397
 CPU time [min]:     2.485                   Wall time [min]:     0.105
 
 Coulomb energy + HF exchange [au]:   1651.995933556124
 Gradient norm:      1.5953E-01
 DIIS is running in this iteration step.
 RMS of [F,P]:                                         0.01545906740364
 RMS of difference density:                            0.00371909723386
 Gap [au]:  0.12488464
 ALPHA OCC:  57
 BETA  OCC:  57
 
 ***KOHN-SHAM ENERGY IN STEP   2 IS          -878.8980474309769306 [AU]
 
 Step comparison  Energy Drift [au]  DIIS error drift  Gradient drift
        1            1.3032E+00         7.9842E-03       1.9393E+00
        2            8.7890E+02         1.0000E-07       1.9393E+00
 ======================================================================
 ITERATION STEP   3
 CPU time [min]:     2.502                   Wall time [min]:     0.106
 

 SCF control                  : diis+damping
 Damping factor/level shift   : 0.700/0.200
 DIIS [start/end/frequency]   :   2 / 50 /  1

 Constructing Fock-matrix...
 
 Pipek-Mezey localization...
 Step  Convergence
   1  16.306938115887
   2   4.272028341973
   3   0.070444082116
   4   0.000033204438
   5   0.000001446815
   6   0.000001032068
   7   0.000000629212
 CPU time [min]:     2.531                   Wall time [min]:     0.107
 
 Constructing local fitting domains...
 Local fitting domains are unchanged.
 
 First step of Coulomb + first step of exchange...
 Exchange contribution is evaluated for MOs 1 to 57.
   1% done.
  13% done.
  25% done.
  40% done.
  55% done.
  70% done.
  83% done.
 100% done.
 CPU time [min]:     2.812                   Wall time [min]:     0.114
 
 Fitting and assembly step of exchange...
 CPU time [min]:     2.842                   Wall time [min]:     0.115
 
 Second step of Coulomb...
   1% done.
  13% done.
  25% done.
  40% done.
  55% done.
  70% done.
  83% done.
 100% done.
 CPU time [min]:     2.916                   Wall time [min]:     0.117
 
 Calculating the exchange-correlation matrix...
                   0.4700*B88 [au]:    -38.325763332755
                   0.7300*LYP [au]:     -3.184778993596
 Exchange-correlation energy  [au]:    -41.510542326351
 CPU time [min]:     3.467                   Wall time [min]:     0.148
 
 Coulomb energy + HF exchange [au]:   1645.645973580616
 Gradient norm:      7.4643E-02
 DIIS is running in this iteration step.
 RMS of [F,P]:                                         0.01088733299168
 RMS of difference density:                            0.00280777045169
 Gap [au]:  0.14930298
 ALPHA OCC:  57
 BETA  OCC:  57
 
 ***KOHN-SHAM ENERGY IN STEP   3 IS          -879.2425650520244744 [AU]
 
 Step comparison  Energy Drift [au]  DIIS error drift  Gradient drift
        2            3.4452E-01         4.5717E-03       8.4882E-02
 ======================================================================
 ITERATION STEP   4
 CPU time [min]:     3.527                   Wall time [min]:     0.149
 

 SCF control                  : diis
 Damping factor/level shift   : 0.000/0.200
 DIIS [start/end/frequency]   :   2 / 50 /  1

 Constructing Fock-matrix...
 
 Pipek-Mezey localization...
 Step  Convergence
   1  15.332020836654
   2   5.587571849812
   3   0.084450677078
   4   0.000028567047
   5   0.000001055370
   6   0.000000971723
 CPU time [min]:     3.558                   Wall time [min]:     0.150
 
 Constructing local fitting domains...
 Local fitting domains are unchanged.
 
 First step of Coulomb + first step of exchange...
 Exchange contribution is evaluated for MOs 1 to 57.
   1% done.
  13% done.
  25% done.
  40% done.
  55% done.
  70% done.
  83% done.
 100% done.
 CPU time [min]:     3.839                   Wall time [min]:     0.158
 
 Fitting and assembly step of exchange...
 CPU time [min]:     3.869                   Wall time [min]:     0.159
 
 Second step of Coulomb...
   1% done.
  13% done.
  25% done.
  40% done.
  55% done.
  70% done.
  83% done.
 100% done.
 CPU time [min]:     3.943                   Wall time [min]:     0.161
 
 Calculating the exchange-correlation matrix...
                   0.4700*B88 [au]:    -38.056698122876
                   0.7300*LYP [au]:     -3.182455091973
 Exchange-correlation energy  [au]:    -41.239153214850
 CPU time [min]:     4.493                   Wall time [min]:     0.191
 
 Coulomb energy + HF exchange [au]:   1645.254951336397
 Gradient norm:      1.3924E-01
 DIIS is running in this iteration step.
 RMS of [F,P]:                                         0.00848362903022
 RMS of difference density:                            0.01008714486335
 Gap [au]:  0.15579775
 ALPHA OCC:  57
 BETA  OCC:  57
 
 ***KOHN-SHAM ENERGY IN STEP   4 IS          -879.0122484457579048 [AU]
 
 Step comparison  Energy Drift [au]  DIIS error drift  Gradient drift
        3           -2.3032E-01         2.4037E-03      -6.4602E-02
 Warning! The energy goes uphill (with respect to previous step).
 Warning! The gradient goes uphill (with respect to previous step).
 Warning! The gradient goes uphill (with respect to step   3 ).
 ======================================================================
 ITERATION STEP   5
 CPU time [min]:     4.504                   Wall time [min]:     0.192
 

 SCF control                  : diis
 Damping factor/level shift   : 0.000/0.200
 DIIS [start/end/frequency]   :   2 / 50 /  1

 Constructing Fock-matrix...
 
 Pipek-Mezey localization...
 Step  Convergence
   1  13.743060771892
   2   4.389634735845
   3   0.181898720635
   4   0.000870299956
   5   0.000000398914
 CPU time [min]:     4.529                   Wall time [min]:     0.192
 
 Constructing local fitting domains...
 Local fitting domains are unchanged.
 
 First step of Coulomb + first step of exchange...
 Exchange contribution is evaluated for MOs 1 to 57.
   1% done.
  13% done.
  25% done.
  40% done.
  55% done.
  70% done.
  83% done.
 100% done.
 CPU time [min]:     4.812                   Wall time [min]:     0.200
 
 Fitting and assembly step of exchange...
 CPU time [min]:     4.841                   Wall time [min]:     0.201
 
 Second step of Coulomb...
   1% done.
  13% done.
  25% done.
  40% done.
  55% done.
  70% done.
  83% done.
 100% done.
 CPU time [min]:     4.916                   Wall time [min]:     0.203
 
 Calculating the exchange-correlation matrix...
                   0.4700*B88 [au]:    -37.741770257731
                   0.7300*LYP [au]:     -3.176455519069
 Exchange-correlation energy  [au]:    -40.918225776800
 CPU time [min]:     5.474                   Wall time [min]:     0.233
 
 Coulomb energy + HF exchange [au]:   1638.474079541462
 Gradient norm:      3.7997E-02
 DIIS is running in this iteration step.
 RMS of [F,P]:                                         0.00080905596008
 RMS of difference density:                            0.00232584704698
 Gap [au]:  0.15028162
 ALPHA OCC:  57
 BETA  OCC:  57
 
 ***KOHN-SHAM ENERGY IN STEP   5 IS          -879.5666487599874017 [AU]
 
 Step comparison  Energy Drift [au]  DIIS error drift  Gradient drift
        4            5.5440E-01         7.6746E-03       1.0125E-01
 ======================================================================
 ITERATION STEP   6
 CPU time [min]:     5.486                   Wall time [min]:     0.234
 

 SCF control                  : diis
 Damping factor/level shift   : 0.000/0.200
 DIIS [start/end/frequency]   :   2 / 50 /  1

 Constructing Fock-matrix...
 
 Pipek-Mezey localization...
 Step  Convergence
   1  17.099682521816
   2   5.082723338484
   3   0.789874270237
   4   0.003873006757
   5   0.000016889623
   6   0.000003843967
   7   0.000000841636
 CPU time [min]:     5.514                   Wall time [min]:     0.235
 
 Constructing local fitting domains...
 Local fitting domains are unchanged.
 
 First step of Coulomb + first step of exchange...
 Exchange contribution is evaluated for MOs 1 to 57.
   1% done.
  13% done.
  25% done.
  40% done.
  55% done.
  70% done.
  83% done.
 100% done.
 CPU time [min]:     5.795                   Wall time [min]:     0.242
 
 Fitting and assembly step of exchange...
 CPU time [min]:     5.825                   Wall time [min]:     0.243
 
 Second step of Coulomb...
   1% done.
  13% done.
  25% done.
  40% done.
  55% done.
  70% done.
  83% done.
 100% done.
 CPU time [min]:     5.899                   Wall time [min]:     0.245
 
 Calculating the exchange-correlation matrix...
                   0.4700*B88 [au]:    -37.763318687915
                   0.7300*LYP [au]:     -3.177117170623
 Exchange-correlation energy  [au]:    -40.940435858538
 CPU time [min]:     6.451                   Wall time [min]:     0.276
 
 Coulomb energy + HF exchange [au]:   1638.746916076977
 Gradient norm:      1.6587E-02
 DIIS is running in this iteration step.
 RMS of [F,P]:                                         0.00033630059092
 RMS of difference density:                            0.00078541562972
 Gap [au]:  0.15089178
 ALPHA OCC:  57
 BETA  OCC:  57
 
 ***KOHN-SHAM ENERGY IN STEP   6 IS          -879.5700294031139492 [AU]
 
 Step comparison  Energy Drift [au]  DIIS error drift  Gradient drift
        5            3.3806E-03         4.7276E-04       2.1410E-02
 ======================================================================
 ITERATION STEP   7
 CPU time [min]:     6.461                   Wall time [min]:     0.276
 

 SCF control                  : diis
 Damping factor/level shift   : 0.000/0.200
 DIIS [start/end/frequency]   :   2 / 50 /  1

 Constructing Fock-matrix...
 
 Pipek-Mezey localization...
 Step  Convergence
   1  19.683667833223
   2   8.981356422053
   3   2.924825041620
   4   1.529386772273
   5   0.124965136392
   6   0.012382410503
   7   0.001890266412
   8   0.000318233810
   9   0.000053067679
  10   0.000009320197
  11   0.000001626301
  12   0.000000284299
  13   0.000000053593
 CPU time [min]:     6.496                   Wall time [min]:     0.277
 
 Constructing local fitting domains...
 Local fitting domains are unchanged.
 
 First step of Coulomb + first step of exchange...
 Exchange contribution is evaluated for MOs 1 to 57.
   1% done.
  13% done.
  25% done.
  40% done.
  55% done.
  70% done.
  83% done.
 100% done.
 CPU time [min]:     6.778                   Wall time [min]:     0.285
 
 Fitting and assembly step of exchange...
 CPU time [min]:     6.808                   Wall time [min]:     0.286
 
 Second step of Coulomb...
   1% done.
  13% done.
  25% done.
  40% done.
  55% done.
  70% done.
  83% done.
 100% done.
 CPU time [min]:     6.882                   Wall time [min]:     0.288
 
 Calculating the exchange-correlation matrix...
                   0.4700*B88 [au]:    -37.777508120376
                   0.7300*LYP [au]:     -3.177643074185
 Exchange-correlation energy  [au]:    -40.955151194561
 CPU time [min]:     7.433                   Wall time [min]:     0.318
 
 Coulomb energy + HF exchange [au]:   1639.120765923783
 Gradient norm:      8.0059E-03
 DIIS is running in this iteration step.
 RMS of [F,P]:                                         0.00018239793336
 RMS of difference density:                            0.00031935818294
 Gap [au]:  0.15011133
 ALPHA OCC:  57
 BETA  OCC:  57
 
 ***KOHN-SHAM ENERGY IN STEP   7 IS          -879.5706275822903990 [AU]
 
 Step comparison  Energy Drift [au]  DIIS error drift  Gradient drift
        6            5.9818E-04         1.5390E-04       8.5807E-03
 ======================================================================
 ITERATION STEP   8
 CPU time [min]:     7.443                   Wall time [min]:     0.318
 

 SCF control                  : diis
 Damping factor/level shift   : 0.000/0.200
 DIIS [start/end/frequency]   :   2 / 50 /  1

 Constructing Fock-matrix...
 
 Pipek-Mezey localization...
 Step  Convergence
   1  25.138122950491
   2  11.504706853481
   3  19.005613579278
   4   8.972184641389
   5   2.637744553131
   6   0.248209779808
   7   0.017024892278
   8   0.003121753359
   9   0.000827183634
  10   0.000191574244
  11   0.000059322668
  12   0.000017463472
  13   0.000006980252
  14   0.000003210300
  15   0.000001912445
  16   0.000001276801
  17   0.000000908172
  18   0.000000723771
  19   0.000000572233
  20   0.000000431126
  21   0.000000387935
  22   0.000000306523
  23   0.000000265025
  24   0.000000253597
  25   0.000000229598
  26   0.000000215536
  27   0.000000208363
  28   0.000000202188
  29   0.000000196322
  30   0.000000167426
  31   0.000000160779
  32   0.000000164416
  33   0.000000134304
  34   0.000000143823
  35   0.000000140162
  36   0.000000134716
  37   0.000000116991
  38   0.000000114851
  39   0.000000106035
  40   0.000000112029
  41   0.000000109256
  42   0.000000091528
  43   0.000000103755
  44   0.000000087465
  45   0.000000084543
  46   0.000000078594
  47   0.000000073710
  48   0.000000081034
  49   0.000000080055
  50   0.000000068050
  51   0.000000078345
  52   0.000000077914
  53   0.000000065099
  54   0.000000073826
  55   0.000000072656
  56   0.000000070472
  57   0.000000070792
  58   0.000000070301
  59   0.000000069620
  60   0.000000068532
  61   0.000000067066
  62   0.000000057512
  63   0.000000055328
  64   0.000000057588
  65   0.000000046729
  66   0.000000050484
  67   0.000000042256
  68   0.000000040627
  69   0.000000043553
  70   0.000000035916
  71   0.000000035545
  72   0.000000033173
  73   0.000000036258
  74   0.000000036026
  75   0.000000030380
  76   0.000000034969
  77   0.000000029584
  78   0.000000028810
  79   0.000000031235
  80   0.000000030472
  81   0.000000030396
  82   0.000000030729
  83   0.000000030764
  84   0.000000026663
  85   0.000000026145
  86   0.000000023987
  87   0.000000025222
  88   0.000000020890
  89   0.000000020377
  90   0.000000018930
  91   0.000000017903
  92   0.000000019688
  93   0.000000019519
  94   0.000000016591
  95   0.000000019124
  96   0.000000019015
  97   0.000000015922
  98   0.000000016015
  99   0.000000017172
 100   0.000000016711
 101   0.000000016468
 102   0.000000016600
 103   0.000000014362
 104   0.000000014186
 105   0.000000013086
 106   0.000000013722
 107   0.000000011425
 108   0.000000012572
 109   0.000000012500
 110   0.000000012171
 111   0.000000010638
 112   0.000000010561
 113   0.000000009790
 114   0.000000010442
 115   0.000000010218
 116   0.000000008591
 117   0.000000008664
 118   0.000000009317
 119   0.000000009077
 120   0.000000007691
 121   0.000000007703
 122   0.000000008272
 123   0.000000008044
 124   0.000000007931
 125   0.000000007979
 126   0.000000006920
 127   0.000000007615
 128   0.000000007409
 129   0.000000007092
 130   0.000000007046
 131   0.000000006948
 132   0.000000005990
 133   0.000000006475
 134   0.000000006236
 135   0.000000005924
 136   0.000000005096
 137   0.000000004966
 138   0.000000005197
 139   0.000000004959
 140   0.000000004172
 141   0.000000004628
 142   0.000000003891
 143   0.000000004189
 144   0.000000003525
 145   0.000000003388
 146   0.000000003660
 147   0.000000003019
 148   0.000000002998
 149   0.000000003262
 150   0.000000003203
 151   0.000000003197
 152   0.000000003233
 153   0.000000003245
 154   0.000000002805
 155   0.000000002758
 156   0.000000002532
 157   0.000000002334
 158   0.000000002161
 159   0.000000002345
 160   0.000000001948
 161   0.000000001932
 162   0.000000001819
 163   0.000000002005
 164   0.000000002004
 165   0.000000001695
 166   0.000000001957
 167   0.000000001949
 168   0.000000001631
 169   0.000000001642
 170   0.000000001525
 171   0.000000001647
 172   0.000000001625
 173   0.000000001365
 174   0.000000001563
 175   0.000000001320
 176   0.000000001444
 177   0.000000001432
 178   0.000000001391
 179   0.000000001407
 180   0.000000001216
 181   0.000000001344
 182   0.000000001131
 183   0.000000001208
 184   0.000000001014
 185   0.000000001094
 186   0.000000000923
 187   0.000000001006
 188   0.000000001000
 189   0.000000000973
 190   0.000000000986
 191   0.000000000852
 192   0.000000000942
 193   0.000000000793
 194   0.000000000846
 195   0.000000000831
 196   0.000000000687
 197   0.000000000686
 198   0.000000000731
 199   0.000000000710
 200   0.000000000697
 201   0.000000000604
 202   0.000000000671
 203   0.000000000656
 204   0.000000000631
 205   0.000000000630
 206   0.000000000621
 207   0.000000000614
 208   0.000000000603
 209   0.000000000588
 210   0.000000000505
 211   0.000000000540
 212   0.000000000451
 213   0.000000000470
 214   0.000000000456
 215   0.000000000435
 216   0.000000000377
 217   0.000000000412
 218   0.000000000347
 219   0.000000000369
 220   0.000000000362
 221   0.000000000347
 222   0.000000000350
 223   0.000000000301
 224   0.000000000331
 225   0.000000000277
 226   0.000000000295
 227   0.000000000288
 228   0.000000000277
 229   0.000000000278
 230   0.000000000275
 231   0.000000000272
 232   0.000000000234
 233   0.000000000253
 234   0.000000000211
 235   0.000000000222
 236   0.000000000216
 237   0.000000000207
 238   0.000000000179
 239   0.000000000197
 240   0.000000000192
 241   0.000000000160
 242   0.000000000158
 243   0.000000000145
 244   0.000000000155
 245   0.000000000150
 246   0.000000000126
 247   0.000000000143
 248   0.000000000121
 249   0.000000000131
 250   0.000000000111
 251   0.000000000107
 252   0.000000000100
 253   0.000000000095
 254   0.000000000105
 255   0.000000000103
 256   0.000000000104
 257   0.000000000106
 258   0.000000000092
 259   0.000000000102
 260   0.000000000100
 261   0.000000000096
 262   0.000000000083
 263   0.000000000092
 264   0.000000000077
 265   0.000000000082
 266   0.000000000069
 267   0.000000000075
 268   0.000000000063
 269   0.000000000069
 270   0.000000000058
 271   0.000000000064
 272   0.000000000054
 273   0.000000000053
 274   0.000000000050
 275   0.000000000047
 276   0.000000000044
 277   0.000000000042
 278   0.000000000048
 279   0.000000000048
 280   0.000000000048
 281   0.000000000049
 282   0.000000000043
 283   0.000000000048
 284   0.000000000047
 285   0.000000000045
 286   0.000000000039
 287   0.000000000039
 288   0.000000000041
 289   0.000000000034
 290   0.000000000033
 291   0.000000000035
 292   0.000000000034
 293   0.000000000034
 294   0.000000000029
 295   0.000000000029
 296   0.000000000027
 297   0.000000000025
 298   0.000000000024
 299   0.000000000026
 300   0.000000000026
 CPU time [min]:     7.826                   Wall time [min]:     0.329
 
 Constructing local fitting domains...
 Local fitting domains are unchanged.
 
 First step of Coulomb + first step of exchange...
 Exchange contribution is evaluated for MOs 1 to 57.
   1% done.
  13% done.
  25% done.
  40% done.
  55% done.
  70% done.
  83% done.
 100% done.
 CPU time [min]:     8.108                   Wall time [min]:     0.337
 
 Fitting and assembly step of exchange...
 CPU time [min]:     8.138                   Wall time [min]:     0.338
 
 Second step of Coulomb...
   1% done.
  13% done.
  25% done.
  40% done.
  55% done.
  70% done.
  83% done.
 100% done.
 CPU time [min]:     8.212                   Wall time [min]:     0.340
 
 Calculating the exchange-correlation matrix...
                   0.4700*B88 [au]:    -37.783921171539
                   0.7300*LYP [au]:     -3.177793597607
 Exchange-correlation energy  [au]:    -40.961714769146
 CPU time [min]:     8.762                   Wall time [min]:     0.370
 
 Coulomb energy + HF exchange [au]:   1639.212355418249
 Gradient norm:      2.5065E-03
 DIIS is running in this iteration step.
 RMS of [F,P]:                                         0.00006776571560
 RMS of difference density:                            0.00013429699239
 Gap [au]:  0.14993946
 ALPHA OCC:  57
 BETA  OCC:  57
 
 ***KOHN-SHAM ENERGY IN STEP   8 IS          -879.5708180205951976 [AU]
 
 Step comparison  Energy Drift [au]  DIIS error drift  Gradient drift
        7            1.9044E-04         1.1463E-04       5.4994E-03
 ======================================================================
 ITERATION STEP   9
 CPU time [min]:     8.773                   Wall time [min]:     0.370
 

 SCF control                  : diis
 Damping factor/level shift   : 0.000/0.000
 DIIS [start/end/frequency]   :   2 / 50 /  1

 Constructing Fock-matrix...
 
 Pipek-Mezey localization...
 Step  Convergence
   1  22.219414761170
   2   8.281602652705
   3  14.733368253214
   4   7.169871254292
   5   1.701960050205
   6   0.092868486612
   7   0.012624588640
   8   0.002972166302
   9   0.000963395363
  10   0.000276234790
  11   0.000086345338
  12   0.000026337313
  13   0.000008343801
  14   0.000002710235
  15   0.000000938830
  16   0.000000357034
  17   0.000000154976
  18   0.000000077682
  19   0.000000044442
  20   0.000000028023
  21   0.000000019228
  22   0.000000014299
  23   0.000000010599
  24   0.000000008810
  25   0.000000007125
  26   0.000000005458
  27   0.000000005146
  28   0.000000004505
  29   0.000000004013
  30   0.000000003808
  31   0.000000003590
  32   0.000000003406
  33   0.000000002880
  34   0.000000002998
  35   0.000000002434
  36   0.000000002508
  37   0.000000002081
  38   0.000000001967
  39   0.000000002079
  40   0.000000001983
  41   0.000000001709
  42   0.000000001936
  43   0.000000001601
  44   0.000000001539
  45   0.000000001653
  46   0.000000001349
  47   0.000000001539
  48   0.000000001291
  49   0.000000001257
  50   0.000000001369
  51   0.000000001123
  52   0.000000001294
  53   0.000000001087
  54   0.000000001063
  55   0.000000000995
  56   0.000000000932
  57   0.000000001041
  58   0.000000001036
  59   0.000000001054
  60   0.000000000932
  61   0.000000000935
  62   0.000000000851
  63   0.000000000908
  64   0.000000000759
  65   0.000000000858
  66   0.000000000854
  67   0.000000000835
  68   0.000000000742
  69   0.000000000738
  70   0.000000000772
  71   0.000000000740
  72   0.000000000635
  73   0.000000000721
  74   0.000000000696
  75   0.000000000579
  76   0.000000000586
  77   0.000000000532
  78   0.000000000564
  79   0.000000000556
  80   0.000000000554
  81   0.000000000490
  82   0.000000000486
  83   0.000000000441
  84   0.000000000466
  85   0.000000000389
  86   0.000000000386
  87   0.000000000419
  88   0.000000000407
  89   0.000000000413
  90   0.000000000364
  91   0.000000000361
  92   0.000000000328
  93   0.000000000347
  94   0.000000000342
  95   0.000000000342
  96   0.000000000302
  97   0.000000000336
  98   0.000000000323
  99   0.000000000269
 100   0.000000000272
 101   0.000000000283
 102   0.000000000270
 103   0.000000000271
 104   0.000000000237
 105   0.000000000262
 106   0.000000000216
 107   0.000000000206
 108   0.000000000220
 109   0.000000000180
 110   0.000000000204
 111   0.000000000201
 112   0.000000000196
 113   0.000000000201
 114   0.000000000174
 115   0.000000000171
 116   0.000000000154
 117   0.000000000161
 118   0.000000000158
 119   0.000000000156
 120   0.000000000160
 121   0.000000000138
 122   0.000000000136
 123   0.000000000140
 124   0.000000000133
 125   0.000000000132
 126   0.000000000116
 127   0.000000000114
 128   0.000000000103
 129   0.000000000108
 130   0.000000000090
 131   0.000000000100
 132   0.000000000100
 133   0.000000000083
 134   0.000000000085
 135   0.000000000078
 136   0.000000000083
 137   0.000000000070
 138   0.000000000070
 139   0.000000000076
 140   0.000000000062
 141   0.000000000063
 142   0.000000000059
 143   0.000000000064
 144   0.000000000064
 145   0.000000000055
 146   0.000000000057
 147   0.000000000060
 148   0.000000000049
 149   0.000000000050
 150   0.000000000046
 151   0.000000000050
 152   0.000000000042
 153   0.000000000049
 154   0.000000000049
 155   0.000000000040
 156   0.000000000042
 157   0.000000000044
 158   0.000000000036
 159   0.000000000037
 160   0.000000000034
 161   0.000000000037
 162   0.000000000037
 163   0.000000000032
 164   0.000000000033
 165   0.000000000035
 166   0.000000000034
 167   0.000000000034
 168   0.000000000034
 169   0.000000000030
 170   0.000000000033
 171   0.000000000027
 172   0.000000000026
 173   0.000000000028
 174   0.000000000022
 175   0.000000000022
 176   0.000000000024
 177   0.000000000023
 178   0.000000000023
 179   0.000000000021
 180   0.000000000021
 181   0.000000000021
 182   0.000000000021
 183   0.000000000020
 184   0.000000000021
 185   0.000000000018
 186   0.000000000018
 187   0.000000000018
 188   0.000000000017
 189   0.000000000017
 190   0.000000000017
 191   0.000000000015
 192   0.000000000015
 193   0.000000000013
 194   0.000000000012
 195   0.000000000013
 196   0.000000000011
 197   0.000000000012
 198   0.000000000010
 199   0.000000000010
 200   0.000000000009
 201   0.000000000010
 202   0.000000000010
 203   0.000000000010
 204   0.000000000010
 205   0.000000000009
 206   0.000000000010
 207   0.000000000008
 208   0.000000000009
 209   0.000000000009
 210   0.000000000007
 211   0.000000000008
 212   0.000000000007
 213   0.000000000007
 214   0.000000000007
 215   0.000000000007
 216   0.000000000006
 217   0.000000000006
 218   0.000000000006
 219   0.000000000006
 220   0.000000000006
 221   0.000000000006
 222   0.000000000005
 223   0.000000000005
 224   0.000000000005
 225   0.000000000004
 226   0.000000000004
 227   0.000000000004
 228   0.000000000004
 229   0.000000000004
 230   0.000000000004
 231   0.000000000004
 232   0.000000000004
 233   0.000000000004
 234   0.000000000004
 235   0.000000000004
 236   0.000000000003
 237   0.000000000003
 238   0.000000000003
 239   0.000000000003
 240   0.000000000003
 241   0.000000000003
 242   0.000000000003
 243   0.000000000002
 244   0.000000000003
 245   0.000000000002
 246   0.000000000002
 247   0.000000000002
 248   0.000000000002
 249   0.000000000002
 250   0.000000000002
 251   0.000000000002
 252   0.000000000002
 253   0.000000000002
 254   0.000000000002
 255   0.000000000002
 256   0.000000000002
 257   0.000000000002
 258   0.000000000001
 259   0.000000000001
 260   0.000000000001
 261   0.000000000001
 262   0.000000000001
 263   0.000000000001
 264   0.000000000001
 265   0.000000000001
 266   0.000000000001
 267   0.000000000001
 268   0.000000000001
 CPU time [min]:     9.121                   Wall time [min]:     0.380
 
 Constructing local fitting domains...
 Local fitting domains are unchanged.
 
 First step of Coulomb + first step of exchange...
 Exchange contribution is evaluated for MOs 1 to 57.
   1% done.
  13% done.
  25% done.
  40% done.
  55% done.
  70% done.
  83% done.
 100% done.
 CPU time [min]:     9.402                   Wall time [min]:     0.388
 
 Fitting and assembly step of exchange...
 CPU time [min]:     9.432                   Wall time [min]:     0.389
 
 Second step of Coulomb...
   1% done.
  13% done.
  25% done.
  40% done.
  55% done.
  70% done.
  83% done.
 100% done.
 CPU time [min]:     9.506                   Wall time [min]:     0.391
 
 Calculating the exchange-correlation matrix...
                   0.4700*B88 [au]:    -37.786777484880
                   0.7300*LYP [au]:     -3.177828996138
 Exchange-correlation energy  [au]:    -40.964606481018
 CPU time [min]:    10.056                   Wall time [min]:     0.421
 
 Coulomb energy + HF exchange [au]:   1639.223619860180
 Gradient norm:      1.0167E-03
 DIIS is running in this iteration step.
 RMS of [F,P]:                                         0.00002913678154
 RMS of difference density:                            0.00007064550439
 Gap [au]:  0.14992156
 ALPHA OCC:  57
 BETA  OCC:  57
 
 ***KOHN-SHAM ENERGY IN STEP   9 IS          -879.5708580681521198 [AU]
 
 Step comparison  Energy Drift [au]  DIIS error drift  Gradient drift
        8            4.0048E-05         3.8629E-05       1.4897E-03
 ======================================================================
 ITERATION STEP  10
 CPU time [min]:    10.068                   Wall time [min]:     0.421
 

 SCF control                  : diis
 Damping factor/level shift   : 0.000/0.000
 DIIS [start/end/frequency]   :   2 / 50 /  1

 Constructing Fock-matrix...
 
 Pipek-Mezey localization...
 Step  Convergence
   1  26.600594550389
   2   8.216827222367
   3  12.583041554106
   4   5.957082402008
   5   1.299357337076
   6   0.230777609641
   7   0.023902924871
   8   0.009900587375
   9   0.008448857504
  10   0.009825958504
  11   0.010205076982
  12   0.010364602880
  13   0.009012102510
  14   0.006829212535
  15   0.004651082225
  16   0.002945501063
  17   0.001806710010
  18   0.001102763331
  19   0.000671295042
  20   0.000398574124
  21   0.000240722551
  22   0.000143718955
  23   0.000085987240
  24   0.000050386282
  25   0.000030691930
  26   0.000018435305
  27   0.000010938706
  28   0.000006412336
  29   0.000003754452
  30   0.000002216219
  31   0.000001281040
  32   0.000000762405
  33   0.000000432691
  34   0.000000243389
  35   0.000000136746
  36   0.000000074764
  37   0.000000041605
  38   0.000000021242
  39   0.000000011413
  40   0.000000007095
  41   0.000000004825
  42   0.000000004193
  43   0.000000003938
  44   0.000000003057
  45   0.000000004104
  46   0.000000003418
  47   0.000000003745
  48   0.000000004508
  49   0.000000003819
  50   0.000000004707
  51   0.000000004795
  52   0.000000004908
  53   0.000000003981
  54   0.000000004500
  55   0.000000003835
  56   0.000000004283
  57   0.000000004258
  58   0.000000003613
  59   0.000000004164
  60   0.000000003467
  61   0.000000003863
  62   0.000000003230
  63   0.000000003226
  64   0.000000002913
  65   0.000000002784
  66   0.000000003090
  67   0.000000002565
  68   0.000000002603
  69   0.000000002412
  70   0.000000002319
  71   0.000000002604
  72   0.000000002161
  73   0.000000002508
  74   0.000000002496
  75   0.000000002501
  76   0.000000002535
  77   0.000000002197
  78   0.000000002177
  79   0.000000002286
  80   0.000000002220
  81   0.000000001891
  82   0.000000001878
  83   0.000000001704
  84   0.000000001611
  85   0.000000001730
  86   0.000000001443
  87   0.000000001431
  88   0.000000001327
  89   0.000000001468
  90   0.000000001464
  91   0.000000001473
  92   0.000000001495
  93   0.000000001288
  94   0.000000001435
  95   0.000000001384
  96   0.000000001173
  97   0.000000001295
  98   0.000000001250
  99   0.000000001058
 100   0.000000001167
 101   0.000000000969
 102   0.000000001059
 103   0.000000000878
 104   0.000000000963
 105   0.000000000938
 106   0.000000000916
 107   0.000000000928
 108   0.000000000916
 109   0.000000000791
 110   0.000000000869
 111   0.000000000828
 112   0.000000000696
 113   0.000000000684
 114   0.000000000616
 115   0.000000000655
 116   0.000000000544
 117   0.000000000607
 118   0.000000000503
 119   0.000000000494
 120   0.000000000456
 121   0.000000000431
 122   0.000000000478
 123   0.000000000475
 124   0.000000000481
 125   0.000000000419
 126   0.000000000419
 127   0.000000000442
 128   0.000000000369
 129   0.000000000364
 130   0.000000000333
 131   0.000000000365
 132   0.000000000306
 133   0.000000000347
 134   0.000000000342
 135   0.000000000341
 136   0.000000000343
 137   0.000000000297
 138   0.000000000330
 139   0.000000000273
 140   0.000000000266
 141   0.000000000280
 142   0.000000000231
 143   0.000000000258
 144   0.000000000251
 145   0.000000000249
 146   0.000000000217
 147   0.000000000241
 148   0.000000000199
 149   0.000000000217
 150   0.000000000211
 151   0.000000000206
 152   0.000000000179
 153   0.000000000198
 154   0.000000000190
 155   0.000000000186
 156   0.000000000184
 157   0.000000000182
 158   0.000000000156
 159   0.000000000152
 160   0.000000000136
 161   0.000000000126
 162   0.000000000134
 163   0.000000000110
 164   0.000000000123
 165   0.000000000121
 166   0.000000000120
 167   0.000000000104
 168   0.000000000103
 169   0.000000000095
 170   0.000000000101
 171   0.000000000099
 172   0.000000000084
 173   0.000000000096
 174   0.000000000091
 175   0.000000000090
 176   0.000000000079
 177   0.000000000087
 178   0.000000000083
 179   0.000000000082
 180   0.000000000081
 181   0.000000000079
 182   0.000000000069
 183   0.000000000074
 184   0.000000000070
 185   0.000000000067
 186   0.000000000067
 187   0.000000000057
 188   0.000000000062
 189   0.000000000059
 190   0.000000000057
 191   0.000000000048
 192   0.000000000053
 193   0.000000000050
 194   0.000000000042
 195   0.000000000046
 196   0.000000000044
 197   0.000000000043
 198   0.000000000037
 199   0.000000000040
 200   0.000000000039
 201   0.000000000033
 202   0.000000000036
 203   0.000000000034
 204   0.000000000033
 205   0.000000000033
 206   0.000000000033
 207   0.000000000032
 208   0.000000000031
 209   0.000000000031
 210   0.000000000026
 211   0.000000000024
 212   0.000000000024
 213   0.000000000020
 214   0.000000000019
 215   0.000000000020
 216   0.000000000017
 217   0.000000000017
 218   0.000000000016
 219   0.000000000017
 220   0.000000000017
 221   0.000000000017
 222   0.000000000017
 223   0.000000000017
 224   0.000000000017
 225   0.000000000017
 226   0.000000000017
 227   0.000000000014
 228   0.000000000014
 229   0.000000000014
 230   0.000000000013
 231   0.000000000011
 232   0.000000000013
 233   0.000000000010
 234   0.000000000010
 235   0.000000000011
 236   0.000000000010
 237   0.000000000010
 238   0.000000000010
 239   0.000000000009
 240   0.000000000009
 241   0.000000000008
 242   0.000000000008
 243   0.000000000007
 244   0.000000000008
 245   0.000000000006
 246   0.000000000007
 247   0.000000000007
 248   0.000000000006
 249   0.000000000007
 250   0.000000000006
 251   0.000000000006
 252   0.000000000006
 253   0.000000000006
 254   0.000000000005
 255   0.000000000005
 256   0.000000000005
 257   0.000000000004
 258   0.000000000005
 259   0.000000000004
 260   0.000000000004
 261   0.000000000004
 262   0.000000000004
 263   0.000000000004
 264   0.000000000004
 265   0.000000000004
 266   0.000000000003
 267   0.000000000003
 268   0.000000000003
 269   0.000000000003
 270   0.000000000003
 271   0.000000000003
 272   0.000000000003
 273   0.000000000003
 274   0.000000000003
 275   0.000000000003
 276   0.000000000002
 277   0.000000000002
 278   0.000000000002
 279   0.000000000002
 280   0.000000000002
 281   0.000000000002
 282   0.000000000002
 283   0.000000000002
 284   0.000000000002
 285   0.000000000002
 286   0.000000000002
 287   0.000000000002
 288   0.000000000002
 289   0.000000000002
 290   0.000000000002
 291   0.000000000002
 292   0.000000000001
 293   0.000000000002
 294   0.000000000002
 295   0.000000000001
 296   0.000000000001
 297   0.000000000001
 298   0.000000000001
 299   0.000000000001
 300   0.000000000001
 CPU time [min]:    10.452                   Wall time [min]:     0.432
 
 Constructing local fitting domains...
 Local fitting domains are unchanged.
 
 First step of Coulomb + first step of exchange...
 Exchange contribution is evaluated for MOs 1 to 57.
   1% done.
  13% done.
  25% done.
  40% done.
  55% done.
  70% done.
  83% done.
 100% done.
 CPU time [min]:    10.734                   Wall time [min]:     0.440
 
 Fitting and assembly step of exchange...
 CPU time [min]:    10.763                   Wall time [min]:     0.441
 
 Second step of Coulomb...
   1% done.
  13% done.
  25% done.
  40% done.
  55% done.
  70% done.
  83% done.
 100% done.
 CPU time [min]:    10.838                   Wall time [min]:     0.443
 
 Calculating the exchange-correlation matrix...
                   0.4700*B88 [au]:    -37.788530488190
                   0.7300*LYP [au]:     -3.177863506910
[...]
 MP2 energy in ED [au]:          -0.069940643098
 CPU time [min]:   317.269                   Wall time [min]:     8.868
 
 MO:    13
 Number of atoms in domain:       6
 Number of atomic orbitals:    1080
 Number of atoms for local DF:    6
 Number of fitting functions:  2844 (100.00%)
 Number of occupied orbitals:    22
 Number of virtual  orbitals:  1023
 Number of Cholesky vectors:     10
 MP2 energy in ED [au]:          -0.070034407242
 CPU time [min]:   340.603                   Wall time [min]:     9.519
 
 MO:    14
 Number of atoms in domain:       6
 Number of atomic orbitals:    1080
 Number of atoms for local DF:    6
 Number of fitting functions:  2844 (100.00%)
 Number of occupied orbitals:    24
 Number of virtual  orbitals:  1023
 Number of Cholesky vectors:     10
 MP2 energy in ED [au]:          -0.070034153636
 CPU time [min]:   364.535                   Wall time [min]:    10.185
 
 MO:    15
 Number of atoms in domain:       6
 Number of atomic orbitals:    1080
 Number of atoms for local DF:    6
 Number of fitting functions:  2844 (100.00%)
 Number of occupied orbitals:    23
 Number of virtual  orbitals:  1023
 Number of Cholesky vectors:     10
 MP2 energy in ED [au]:          -0.070039723651
 CPU time [min]:   388.117                   Wall time [min]:    10.842
 
 MO:    16
 Number of atoms in domain:       6
 Number of atomic orbitals:    1080
 Number of atoms for local DF:    6
 Number of fitting functions:  2844 (100.00%)
 Number of occupied orbitals:    23
 Number of virtual  orbitals:  1023
 Number of Cholesky vectors:     10
 MP2 energy in ED [au]:          -0.070049103805
 CPU time [min]:   411.763                   Wall time [min]:    11.501
 
 MO:    17
 Number of atoms in domain:       6
 Number of atomic orbitals:    1080
 Number of atoms for local DF:    6
 Number of fitting functions:  2844 (100.00%)
 Number of occupied orbitals:    24
 Number of virtual  orbitals:  1023
 Number of Cholesky vectors:     10
 MP2 energy in ED [au]:          -0.070053541125
 CPU time [min]:   435.652                   Wall time [min]:    12.166
 
 MO:    18
 Number of atoms in domain:       6
 Number of atomic orbitals:    1080
 Number of atoms for local DF:    6
 Number of fitting functions:  2844 (100.00%)
 Number of occupied orbitals:    22
 Number of virtual  orbitals:  1023
 Number of Cholesky vectors:     10
 MP2 energy in ED [au]:          -0.070046747790
 CPU time [min]:   458.929                   Wall time [min]:    12.815
 
 MO:    19
 Number of atoms in domain:       6
 Number of atomic orbitals:    1080
 Number of atoms for local DF:    6
 Number of fitting functions:  2844 (100.00%)
 Number of occupied orbitals:    34
 Number of virtual  orbitals:  1023
 Number of Cholesky vectors:     10
 MP2 energy in ED [au]:          -0.070328896229
 CPU time [min]:   486.545                   Wall time [min]:    13.584
 
 MO:    20
 Number of atoms in domain:       6
 Number of atomic orbitals:    1080
 Number of atoms for local DF:    6
 Number of fitting functions:  2844 (100.00%)
 Number of occupied orbitals:    24
 Number of virtual  orbitals:  1023
 Number of Cholesky vectors:     10
 MP2 energy in ED [au]:          -0.070139981774
 CPU time [min]:   510.416                   Wall time [min]:    14.249
 
 MO:    21
 Number of atoms in domain:       6
 Number of atomic orbitals:    1080
 Number of atoms for local DF:    6
 Number of fitting functions:  2844 (100.00%)
 Number of occupied orbitals:    24
 Number of virtual  orbitals:  1023
 Number of Cholesky vectors:     10
 MP2 energy in ED [au]:          -0.070050795286
 CPU time [min]:   534.334                   Wall time [min]:    14.915
 
 MO:    22
 Number of atoms in domain:       6
 Number of atomic orbitals:    1080
 Number of atoms for local DF:    6
 Number of fitting functions:  2844 (100.00%)
 Number of occupied orbitals:    25
 Number of virtual  orbitals:  1023
 Number of Cholesky vectors:     10
 MP2 energy in ED [au]:          -0.070029798993
 CPU time [min]:   558.458                   Wall time [min]:    15.587
 
 MO:    23
 Number of atoms in domain:       6
 Number of atomic orbitals:    1080
 Number of atoms for local DF:    6
 Number of fitting functions:  2844 (100.00%)
 Number of occupied orbitals:    23
 Number of virtual  orbitals:  1023
 Number of Cholesky vectors:     10
 MP2 energy in ED [au]:          -0.070113036331
 CPU time [min]:   582.101                   Wall time [min]:    16.246
 
 MO:    24
 Number of atoms in domain:       6
 Number of atomic orbitals:    1080
 Number of atoms for local DF:    6
 Number of fitting functions:  2844 (100.00%)
 Number of occupied orbitals:    22
 Number of virtual  orbitals:  1023
 Number of Cholesky vectors:     10
 MP2 energy in ED [au]:          -0.070124198792
 CPU time [min]:   605.358                   Wall time [min]:    16.894
 
 MO:    25
 Number of atoms in domain:       6
 Number of atomic orbitals:    1080
 Number of atoms for local DF:    6
 Number of fitting functions:  2844 (100.00%)
 Number of occupied orbitals:    49
 Number of virtual  orbitals:  1023
 Number of Cholesky vectors:     10
 MP2 energy in ED [au]:          -0.137495276823
 CPU time [min]:   638.220                   Wall time [min]:    17.817
 
 MO:    26
 Number of atoms in domain:       6
 Number of atomic orbitals:    1080
 Number of atoms for local DF:    6
 Number of fitting functions:  2844 (100.00%)
 Number of occupied orbitals:    49
 Number of virtual  orbitals:  1023
 Number of Cholesky vectors:     10
 MP2 energy in ED [au]:          -0.137961109291
 CPU time [min]:   670.985                   Wall time [min]:    18.738
 
 MO:    27
 Number of atoms in domain:       6
 Number of atomic orbitals:    1080
 Number of atoms for local DF:    6
 Number of fitting functions:  2844 (100.00%)
 Number of occupied orbitals:    49
 Number of virtual  orbitals:  1023
 Number of Cholesky vectors:     10
 MP2 energy in ED [au]:          -0.137941922804
 CPU time [min]:   703.929                   Wall time [min]:    19.664
 
 MO:    28
 Number of atoms in domain:       6
 Number of atomic orbitals:    1080
 Number of atoms for local DF:    6
 Number of fitting functions:  2844 (100.00%)
 Number of occupied orbitals:    49
 Number of virtual  orbitals:  1023
 Number of Cholesky vectors:     10
 MP2 energy in ED [au]:          -0.137533823889
 CPU time [min]:   736.642                   Wall time [min]:    20.583
 
 MO:    29
 Number of atoms in domain:       6
 Number of atomic orbitals:    1080
 Number of atoms for local DF:    6
 Number of fitting functions:  2844 (100.00%)
 Number of occupied orbitals:    40
 Number of virtual  orbitals:  1023
 Number of Cholesky vectors:     10
 MP2 energy in ED [au]:          -0.136671957140
 CPU time [min]:   766.567                   Wall time [min]:    21.417
 
 MO:    30
 Number of atoms in domain:       6
 Number of atomic orbitals:    1080
 Number of atoms for local DF:    6
 Number of fitting functions:  2844 (100.00%)
 Number of occupied orbitals:    39
 Number of virtual  orbitals:  1023
 Number of Cholesky vectors:     10
 MP2 energy in ED [au]:          -0.136670893554
 CPU time [min]:   795.918                   Wall time [min]:    22.234
 
 MO:    31
 Number of atoms in domain:       6
 Number of atomic orbitals:    1080
 Number of atoms for local DF:    6
 Number of fitting functions:  2844 (100.00%)
 Number of occupied orbitals:    40
 Number of virtual  orbitals:  1023
 Number of Cholesky vectors:     10
 MP2 energy in ED [au]:          -0.136510894916
 CPU time [min]:   825.830                   Wall time [min]:    23.068
 
 MO:    32
 Number of atoms in domain:       6
 Number of atomic orbitals:    1080
 Number of atoms for local DF:    6
 Number of fitting functions:  2844 (100.00%)
 Number of occupied orbitals:    42
 Number of virtual  orbitals:  1023
 Number of Cholesky vectors:     10
 MP2 energy in ED [au]:          -0.136450428425
 CPU time [min]:   856.434                   Wall time [min]:    23.922
 
 MO:    33
 Number of atoms in domain:       6
 Number of atomic orbitals:    1080
 Number of atoms for local DF:    6
 Number of fitting functions:  2844 (100.00%)
 Number of occupied orbitals:    42
 Number of virtual  orbitals:  1023
 Number of Cholesky vectors:     10
 MP2 energy in ED [au]:          -0.136442377363
 CPU time [min]:   887.081                   Wall time [min]:    24.778
 
 MO:    34
 Number of atoms in domain:       6
 Number of atomic orbitals:    1080
 Number of atoms for local DF:    6
 Number of fitting functions:  2844 (100.00%)
 Number of occupied orbitals:    46
 Number of virtual  orbitals:  1023
 Number of Cholesky vectors:     10
 MP2 energy in ED [au]:          -0.137302051873
 CPU time [min]:   919.187                   Wall time [min]:    25.676
 
 MO:    35
 Number of atoms in domain:       6
 Number of atomic orbitals:    1080
 Number of atoms for local DF:    6
 Number of fitting functions:  2844 (100.00%)
 Number of occupied orbitals:    49
 Number of virtual  orbitals:  1023
 Number of Cholesky vectors:     10
 MP2 energy in ED [au]:          -0.137430413784
 CPU time [min]:   952.065                   Wall time [min]:    26.600
 
 MO:    36
 Number of atoms in domain:       6
 Number of atomic orbitals:    1080
 Number of atoms for local DF:    6
 Number of fitting functions:  2844 (100.00%)
 Number of occupied orbitals:    57
 Number of virtual  orbitals:  1023
 Number of Cholesky vectors:     10
 MP2 energy in ED [au]:          -0.139562540630
 CPU time [min]:   987.464                   Wall time [min]:    27.609
 
 MO:    37
 Number of atoms in domain:       6
 Number of atomic orbitals:    1080
 Number of atoms for local DF:    6
 Number of fitting functions:  2844 (100.00%)
 Number of occupied orbitals:    46
 Number of virtual  orbitals:  1023
 Number of Cholesky vectors:     10
 MP2 energy in ED [au]:          -0.137340495696
 CPU time [min]:  1019.510                   Wall time [min]:    28.506
 
 MO:    38
 Number of atoms in domain:       6
 Number of atomic orbitals:    1080
 Number of atoms for local DF:    6
 Number of fitting functions:  2844 (100.00%)
 Number of occupied orbitals:    49
 Number of virtual  orbitals:  1023
 Number of Cholesky vectors:     10
 MP2 energy in ED [au]:          -0.138106195760
 CPU time [min]:  1052.385                   Wall time [min]:    29.430
 
 MO:    39
 Number of atoms in domain:       6
 Number of atomic orbitals:    1080
 Number of atoms for local DF:    6
 Number of fitting functions:  2844 (100.00%)
 Number of occupied orbitals:    46
 Number of virtual  orbitals:  1023
 Number of Cholesky vectors:     10
 MP2 energy in ED [au]:          -0.137034950180
 CPU time [min]:  1084.568                   Wall time [min]:    30.331
 
 MO:    40
 Number of atoms in domain:       6
 Number of atomic orbitals:    1080
 Number of atoms for local DF:    6
 Number of fitting functions:  2844 (100.00%)
 Number of occupied orbitals:    49
 Number of virtual  orbitals:  1023
 Number of Cholesky vectors:     10
 MP2 energy in ED [au]:          -0.137659867593
 CPU time [min]:  1117.371                   Wall time [min]:    31.253
 
 MO:    41
 Number of atoms in domain:       6
 Number of atomic orbitals:    1080
 Number of atoms for local DF:    6
 Number of fitting functions:  2844 (100.00%)
 Number of occupied orbitals:    45
 Number of virtual  orbitals:  1023
 Number of Cholesky vectors:     10
 MP2 energy in ED [au]:          -0.137023859633
 CPU time [min]:  1148.793                   Wall time [min]:    32.132
 
 MO:    42
 Number of atoms in domain:       6
 Number of atomic orbitals:    1080
 Number of atoms for local DF:    6
 Number of fitting functions:  2844 (100.00%)
 Number of occupied orbitals:    49
 Number of virtual  orbitals:  1023
 Number of Cholesky vectors:     10
 MP2 energy in ED [au]:          -0.138225609246
 CPU time [min]:  1181.556                   Wall time [min]:    33.052
 
 MO:    43
 Number of atoms in domain:       6
 Number of atomic orbitals:    1080
 Number of atoms for local DF:    6
 Number of fitting functions:  2844 (100.00%)
 Number of occupied orbitals:    49
 Number of virtual  orbitals:  1023
 Number of Cholesky vectors:     10
 MP2 energy in ED [au]:          -0.137692295556
 CPU time [min]:  1214.396                   Wall time [min]:    33.975
 
 MO:    44
 Number of atoms in domain:       6
 Number of atomic orbitals:    1080
 Number of atoms for local DF:    6
 Number of fitting functions:  2844 (100.00%)
 Number of occupied orbitals:    48
 Number of virtual  orbitals:  1023
 Number of Cholesky vectors:     10
 MP2 energy in ED [au]:          -0.138621394457
 CPU time [min]:  1247.233                   Wall time [min]:    34.896
 
 MO:    45
 Number of atoms in domain:       6
 Number of atomic orbitals:    1080
 Number of atoms for local DF:    6
 Number of fitting functions:  2844 (100.00%)
 Number of occupied orbitals:    46
 Number of virtual  orbitals:  1023
 Number of Cholesky vectors:     10
 MP2 energy in ED [au]:          -0.139434978720
 CPU time [min]:  1279.357                   Wall time [min]:    35.795
 
 MO:    46
 Number of atoms in domain:       6
 Number of atomic orbitals:    1080
 Number of atoms for local DF:    6
 Number of fitting functions:  2844 (100.00%)
 Number of occupied orbitals:    49
 Number of virtual  orbitals:  1023
 Number of Cholesky vectors:     10
 MP2 energy in ED [au]:          -0.137972902828
 CPU time [min]:  1312.085                   Wall time [min]:    36.715
 
 MO:    47
 Number of atoms in domain:       6
 Number of atomic orbitals:    1080
 Number of atoms for local DF:    6
 Number of fitting functions:  2844 (100.00%)
 Number of occupied orbitals:    49
 Number of virtual  orbitals:  1023
 Number of Cholesky vectors:     10
 MP2 energy in ED [au]:          -0.138190949478
 CPU time [min]:  1344.967                   Wall time [min]:    37.639
 
 MO:    48
 Number of atoms in domain:       6
 Number of atomic orbitals:    1080
 Number of atoms for local DF:    6
 Number of fitting functions:  2844 (100.00%)
 Number of occupied orbitals:    48
 Number of virtual  orbitals:  1023
 Number of Cholesky vectors:     10
 MP2 energy in ED [au]:          -0.138572022172
 CPU time [min]:  1377.605                   Wall time [min]:    38.555
 
 MO:    49
 Number of atoms in domain:       6
 Number of atomic orbitals:    1080
 Number of atoms for local DF:    6
 Number of fitting functions:  2844 (100.00%)
 Number of occupied orbitals:    46
 Number of virtual  orbitals:  1023
 Number of Cholesky vectors:     10
 MP2 energy in ED [au]:          -0.139516447826
 CPU time [min]:  1409.696                   Wall time [min]:    39.453
 
 MO:    50
 Number of atoms in domain:       6
 Number of atomic orbitals:    1080
 Number of atoms for local DF:    6
 Number of fitting functions:  2844 (100.00%)
 Number of occupied orbitals:    47
 Number of virtual  orbitals:  1023
 Number of Cholesky vectors:     10
 MP2 energy in ED [au]:          -0.139344712200
 CPU time [min]:  1441.914                   Wall time [min]:    40.356
 
 MO:    51
 Number of atoms in domain:       6
 Number of atomic orbitals:    1080
 Number of atoms for local DF:    6
 Number of fitting functions:  2844 (100.00%)
 Number of occupied orbitals:    57
 Number of virtual  orbitals:  1023
 Number of Cholesky vectors:     10
 MP2 energy in ED [au]:          -0.139579044535
 CPU time [min]:  1477.245                   Wall time [min]:    41.363
 
 MO:    52
 Number of atoms in domain:       6
 Number of atomic orbitals:    1080
 Number of atoms for local DF:    6
 Number of fitting functions:  2844 (100.00%)
 Number of occupied orbitals:    57
 Number of virtual  orbitals:  1023
 Number of Cholesky vectors:     10
 MP2 energy in ED [au]:          -0.142091134976
 CPU time [min]:  1512.566                   Wall time [min]:    42.369
 
 MO:    53
 Number of atoms in domain:       6
 Number of atomic orbitals:    1080
 Number of atoms for local DF:    6
 Number of fitting functions:  2844 (100.00%)
 Number of occupied orbitals:    57
 Number of virtual  orbitals:  1023
 Number of Cholesky vectors:     10
 MP2 energy in ED [au]:          -0.141992971128
 CPU time [min]:  1547.877                   Wall time [min]:    43.376
 
 MO:    54
 Number of atoms in domain:       6
 Number of atomic orbitals:    1080
 Number of atoms for local DF:    6
 Number of fitting functions:  2844 (100.00%)
 Number of occupied orbitals:    53
 Number of virtual  orbitals:  1023
 Number of Cholesky vectors:     10
 MP2 energy in ED [au]:          -0.138940302413
 CPU time [min]:  1581.945                   Wall time [min]:    44.339
 
 MO:    55
 Number of atoms in domain:       6
 Number of atomic orbitals:    1080
 Number of atoms for local DF:    6
 Number of fitting functions:  2844 (100.00%)
 Number of occupied orbitals:    57
 Number of virtual  orbitals:  1023
 Number of Cholesky vectors:     10
 MP2 energy in ED [au]:          -0.124292588296
 CPU time [min]:  1617.262                   Wall time [min]:    45.346
 
 MO:    56
 Number of atoms in domain:       6
 Number of atomic orbitals:    1080
 Number of atoms for local DF:    6
 Number of fitting functions:  2844 (100.00%)
 Number of occupied orbitals:    57
 Number of virtual  orbitals:  1023
 Number of Cholesky vectors:     10
 MP2 energy in ED [au]:          -0.124097434008
 CPU time [min]:  1652.610                   Wall time [min]:    46.354
 
 MO:    57
 Number of atoms in domain:       6
 Number of atomic orbitals:    1080
 Number of atoms for local DF:    6
 Number of fitting functions:  2844 (100.00%)
 Number of occupied orbitals:    57
 Number of virtual  orbitals:  1023
 Number of Cholesky vectors:     10
 MP2 energy in ED [au]:          -0.124250442247
 CPU time [min]:  1687.907                   Wall time [min]:    47.360
 
 **********************************************************************
 Dimensions of the extended domains:    Minimum / Average / Maximum
 
 Number of atoms in domain:                   6       6.0         6
 Number of atomic orbitals:                1080    1080.0      1080
 Number of fitting functions:              2844    2844.0      2844
 Number of occupied localized MOs:           22      39.1        57
 Number of PAOs:                           1023    1023.0      1023
 
 **********************************************************************
 Final local correlation results
 
 Sum of pair energies [au]:                    -0.000724928501    (0.012%)
 Sum of energy corrections [au]:                0.000000000000    (0.000%)
 Sum of LMO contributions [au]:                -6.198047605981
 
 Reference energy [au]:                      -879.954774226706
 MP2 contribution [au]:                        -1.673668584310
 B2PLYP energy [au]:                         -881.628442811016
 
 **********************************************************************
  Time of manipulations in the EDs:      max CPU/Wall [s]  all CPU/Wall [min]
 
 PD construction & multipole pair E     893.97    26.36    14.90     0.44
 Construct MO basis of the ED            14.22     0.41    11.26     0.32
 (mu,nu|P) evaluation & trf 2 (ai|P)   1896.42    54.13  1515.71    42.52
 Evaluate MP2 energy of the ED          182.20     5.08   118.02     3.29
 Total of the above for all EDs        2092.84    59.62  1644.98    46.13
 
 **********************************************************************
 Maximum memory requirement [MB]:       
 
 PD construction & multipole pair E         88.3
 AO integral evaluation in the EDs       17889.4
 (mu,nu|P) evaluation & trf 2 (aI|P)     20865.9
 Evaluate MP2 energy in the EDs           2101.5
 
 ************************ 2023-02-15 04:38:31 *************************
                      Normal termination of mrcc.
 **********************************************************************
