 vasp.6.3.0 20Jan22 (build Apr  1 2022 16:44:48) complex                         
 executed on        HPECrayEX_GCC date 2022.08.15  23:30:45
 running  512 mpi-ranks, with    1 threads/rank
 distrk:  each k-point on  256 cores,    2 groups
 distr:  one band on NCORE=   4 cores,   64 groups


--------------------------------------------------------------------------------------------------------


 INCAR:
   SYSTEM = MgO-rocksalt
   ISMEAR = 0
   SIGMA = 0.05
   EDIFF = 1E-6
   ALGO = ALL
   ISTART = 0
   IBRION = -1
   NSW = 0
   ISYM = 2
   DIPOL = 0.5 0.5 0.5
   IDIPOL = 3
   LDIPOL = .TRUE.
   GGA = RE
   IVDW = 20
   VDW_SR = 0.6
   ENCUT = 520
   PREC = Accurate
   LASPH = .TRUE.
   LREAL = Auto
   ISPIN = 1
   NELM = 200
   NELMIN = 8
   NCORE = 4
   KPAR = 2
   LWAVE = .FALSE.
   LCHARG = .FALSE.

 POTCAR:    PAW_PBE Ag 02Apr2005                  
 POTCAR:    PAW_PBE Ag 02Apr2005                  
   SHA256 =  6550cfa3543261e132c169e1b98a529204624d72be14e2da2e0242bcb74a174d Ag/POTCAR             
   COPYR  = (c) Copyright 02Apr2005 Georg Kresse                                                    
   COPYR  = This file is part of the software VASP. Any use, copying, and all other rights are regul
   COPYR  = If you do not have a valid VASP license, you may not use, copy or distribute this file. 
   VRHFIN =Ag : s1 d10                                                                              
   LEXCH  = PE                                                                                      
   EATOM  =  1037.2675 eV,   76.2370 Ry                                                             
                                                                                                    
   TITEL  = PAW_PBE Ag 02Apr2005                                                                    
   LULTRA =        F    use ultrasoft PP ?                                                          
   IUNSCR =        1    unscreen: 0-lin 1-nonlin 2-no                                               
   RPACOR =    2.000    partial core radius                                                         
   POMASS =  107.868; ZVAL   =   11.000    mass and valenz                                          
   RCORE  =    2.500    outmost cutoff radius                                                       
   RWIGS  =    2.840; RWIGS  =    1.503    wigner-seitz radius (au A)                               
   ENMAX  =  249.844; ENMIN  =  187.383 eV                                                          
   ICORE  =        3    local potential                                                             
   LCOR   =        T    correct aug charges                                                         
   LPAW   =        T    paw PP                                                                      
   EAUG   =  412.496                                                                                
   DEXC   =    0.000                                                                                
   RMAX   =    2.560    core radius for proj-oper                                                   
   RAUG   =    1.300    factor for augmentation sphere                                              
   RDEP   =    2.576    radius for radial grids                                                     
   RDEPT  =    2.072    core radius for aug-charge                                                  
                                                                                                    
   Atomic configuration                                                                             
   12 entries                                                                                       
     n  l   j            E        occ.                                                              
     1  0  0.50    -25324.9161   2.0000                                                             
     2  0  0.50     -3728.5341   2.0000                                                             
     2  1  1.50     -3344.0404   6.0000                                                             
     3  0  0.50      -683.5581   2.0000                                                             
     3  1  1.50      -557.3225   6.0000                                                             
     3  2  2.50      -358.3853  10.0000                                                             
     4  0  0.50       -95.0341   2.0000                                                             
     4  1  1.50       -58.5511   6.0000                                                             
     4  2  2.50        -7.4440  10.0000                                                             
     5  0  0.50        -4.4045   1.0000                                                             
     5  1  0.50        -1.3606   0.0000                                                             
     4  3  2.50        -1.3606   0.0000                                                             
   Description                                                                                      
     l       E           TYP  RCUT    TYP  RCUT                                                     
     2     -7.4439781     23  2.400                                                                 
     2     -8.8045607     23  2.400                                                                 
     0     -4.4044681     23  2.400                                                                 
     0      1.9520038     23  2.400                                                                 
     1     -1.3605826     23  2.500                                                                 
     1     27.2116520     23  2.500                                                                 
     3     -4.0817478     23  2.400                                                                 
  local pseudopotential read in
  partial core-charges read in
  partial kinetic energy density read in
  atomic valenz-charges read in
  non local Contribution for L=           2  read in
    real space projection operators read in
  non local Contribution for L=           2  read in
    real space projection operators read in
  non local Contribution for L=           0  read in
    real space projection operators read in
  non local Contribution for L=           0  read in
    real space projection operators read in
  non local Contribution for L=           1  read in
    real space projection operators read in
  non local Contribution for L=           1  read in
    real space projection operators read in
    PAW grid and wavefunctions read in

   number of l-projection  operators is LMAX  =           6
   number of lm-projection operators is LMMAX =          18

 -----------------------------------------------------------------------------
|                                                                             |
|               ----> ADVICE to this user running VASP <----                  |
|                                                                             |
|     You have a (more or less) 'small supercell' and for smaller cells       |
|     it is recommended to use the reciprocal-space projection scheme!        |
|     The real-space optimization is not efficient for small cells and it     |
|     is also less accurate ...                                               |
|     Therefore, set LREAL=.FALSE. in the INCAR file.                         |
|                                                                             |
 -----------------------------------------------------------------------------

 Optimization of the real space projectors (new method)

 maximal supplied QI-value         = 15.12
 optimisation between [QCUT,QGAM] = [ 11.64, 23.28] = [ 37.95,151.78] Ry 
 Optimized for a Real-space Cutoff    1.45 Angstroem

   l    n(q)    QCUT    max X(q) W(low)/X(q) W(high)/X(q)  e(spline) 
   2      9    11.641    53.897    0.22E-03    0.42E-04    0.28E-06
   2      9    11.641    52.416    0.23E-03    0.44E-04    0.29E-06
   0     10    11.641   122.045    0.51E-04    0.25E-04    0.16E-06
   0     10    11.641    73.629    0.49E-04    0.24E-04    0.16E-06
   1     10    11.641    15.255    0.99E-04    0.55E-04    0.11E-06
   1     10    11.641     9.562    0.81E-04    0.47E-04    0.95E-07
 -----------------------------------------------------------------------------
|                                                                             |
|               ----> ADVICE to this user running VASP <----                  |
|                                                                             |
|     You enforced a specific xc type in the INCAR file but a different       |
|     type was found in the POTCAR file.                                      |
|     I HOPE YOU KNOW WHAT YOU ARE DOING!                                     |
|                                                                             |
 -----------------------------------------------------------------------------

  PAW_PBE Ag 02Apr2005                  :
 energy of atom  1       EATOM=-1037.2675
 kinetic energy error for atom=    0.0047 (will be added to EATOM!!)


 POSCAR: Ag
  positions in direct lattice
  No initial velocities read in
 exchange correlation table for  LEXCH =       40
   RHO(1)=    0.500       N(1)  =     2000
   RHO(2)=  100.500       N(2)  =     4000



--------------------------------------------------------------------------------------------------------


 ion  position               nearest neighbor table
   1  0.500  0.500  0.720-   2 2.55
   2  0.500  0.500  0.605-   1 2.55

  LATTYP: Found a simple tetragonal cell.
 ALAT       =    21.1388521970
 C/A-ratio  =     1.0461251639
  
  Lattice vectors:
  
 A1 = (  21.1388521970,   0.0000000000,   0.0000000000)
 A2 = (   0.0000000000,  21.1388521970,   0.0000000000)
 A3 = (   0.0000000000,   0.0000000000,  22.1138852197)


Analysis of symmetry for initial positions (statically):
=====================================================================
 Subroutine PRICEL returns:
 Original cell was already a primitive cell.
 

 Routine SETGRP: Setting up the symmetry group for a 
 simple tetragonal supercell.


 Subroutine GETGRP returns: Found 16 space group operations
 (whereof  8 operations were pure point group operations)
 out of a pool of 16 trial point group operations.


The static configuration has the point symmetry C_4v.
 The point group associated with its full space group is D_4h.


Analysis of symmetry for dynamics (positions and initial velocities):
=====================================================================
 Subroutine PRICEL returns:
 Original cell was already a primitive cell.
 

 Routine SETGRP: Setting up the symmetry group for a 
 simple tetragonal supercell.


 Subroutine GETGRP returns: Found 16 space group operations
 (whereof  8 operations were pure point group operations)
 out of a pool of 16 trial point group operations.


The dynamic configuration has the point symmetry C_4v.
 The point group associated with its full space group is D_4h.


 Subroutine INISYM returns: Found 16 space group operations
 (whereof  8 operations are pure point group operations),
 and found     1 'primitive' translations


----------------------------------------------------------------------------------------

                                     Primitive cell                                     

  volume of cell :    9881.6133

  direct lattice vectors                    reciprocal lattice vectors
    21.138852197  0.000000000  0.000000000     0.047306258  0.000000000  0.000000000
     0.000000000 21.138852197  0.000000000     0.000000000  0.047306258  0.000000000
     0.000000000  0.000000000 22.113885220     0.000000000  0.000000000  0.045220457

  length of vectors
    21.138852197 21.138852197 22.113885220     0.047306258  0.047306258  0.045220457

  position of ions in fractional coordinates (direct lattice)
     0.500000000  0.500000000  0.720254265
     0.500000000  0.500000000  0.605068473

  ion indices of the primitive-cell ions
   primitive index   ion index
                 1           1
                 2           2

----------------------------------------------------------------------------------------



 KPOINTS: KPOINTS created by Atomic Simulation Env

Automatic generation of k-mesh.
 Grid dimensions read from file:
 generate k-points for:    1    1    1

 Generating k-lattice:

  Cartesian coordinates                     Fractional coordinates (reciprocal lattice)
     0.047306258  0.000000000  0.000000000     1.000000000  0.000000000  0.000000000
     0.000000000  0.047306258  0.000000000     0.000000000  1.000000000  0.000000000
     0.000000000  0.000000000  0.045220457     0.000000000  0.000000000  1.000000000

  Length of vectors
     0.047306258  0.047306258  0.045220457

  Shift w.r.t. Gamma in fractional coordinates (k-lattice)
     0.000000000  0.000000000  0.000000000

 
 Subroutine IBZKPT returns following result:
 ===========================================
 
 Found      1 irreducible k-points:
 
 Following reciprocal coordinates:
            Coordinates               Weight
  0.000000  0.000000  0.000000      1.000000
 
 Following cartesian coordinates:
            Coordinates               Weight
  0.000000  0.000000  0.000000      1.000000
 


--------------------------------------------------------------------------------------------------------




 Dimension of arrays:
   k-points           NKPTS =      1   k-points in BZ     NKDIM =      1   number of bands    NBANDS=     64
   number of dos      NEDOS =    301   number of ions     NIONS =      2
   non local maximal  LDIM  =      6   non local SUM 2l+1 LMDIM =     18
   total plane-waves  NPLWV = ******
   max r-space proj   IRMAX =   5559   max aug-charges    IRDMAX=  21597
   dimension x,y,z NGX =   160 NGY =  160 NGZ =  168
   dimension x,y,z NGXF=   320 NGYF=  320 NGZF=  336
   support grid    NGXF=   320 NGYF=  320 NGZF=  336
   ions per type =               2
   NGX,Y,Z   is equivalent  to a cutoff of  12.58, 12.58, 12.63 a.u.
   NGXF,Y,Z  is equivalent  to a cutoff of  25.17, 25.17, 25.26 a.u.

 SYSTEM =  MgO-rocksalt                            
 POSCAR =  Ag                                      

 Startparameter for this run:
   NWRITE =      2    write-flag & timer
   PREC   = accura    normal or accurate (medium, high low for compatibility)
   ISTART =      0    job   : 0-new  1-cont  2-samecut
   ICHARG =      2    charge: 1-file 2-atom 10-const
   ISPIN  =      1    spin polarized calculation?
   LNONCOLLINEAR =      F non collinear calculations
   LSORBIT =      F    spin-orbit coupling
   INIWAV =      1    electr: 0-lowe 1-rand  2-diag
   LASPH  =      T    aspherical Exc in radial PAW
 Electronic Relaxation 1
   ENCUT  =  520.0 eV  38.22 Ry    6.18 a.u.  39.30 39.30 41.12*2*pi/ulx,y,z
   ENINI  =  520.0     initial cutoff
   ENAUG  =  412.5 eV  augmentation charge cutoff
   NELM   =    200;   NELMIN=  8; NELMDL= -5     # of ELM steps 
   EDIFF  = 0.1E-05   stopping-criterion for ELM
   LREAL  =      T    real-space projection
   NLSPLINE    = F    spline interpolate recip. space projectors
   LCOMPAT=      F    compatible to vasp.4.4
   GGA_COMPAT  = T    GGA compatible to vasp.4.4-vasp.4.6
   LMAXPAW     = -100 max onsite density
   LMAXMIX     =    2 max onsite mixed and CHGCAR
   VOSKOWN=      0    Vosko Wilk Nusair interpolation
   ROPT   =   -0.00025
 Ionic relaxation
   EDIFFG = 0.1E-04   stopping-criterion for IOM
   NSW    =      0    number of steps for IOM
   NBLOCK =      1;   KBLOCK =      1    inner block; outer block 
   IBRION =     -1    ionic relax: 0-MD 1-quasi-New 2-CG
   NFREE  =      0    steps in history (QN), initial steepest desc. (CG)
   ISIF   =      2    stress and relaxation
   IWAVPR =     10    prediction:  0-non 1-charg 2-wave 3-comb
   ISYM   =      2    0-nonsym 1-usesym 2-fastsym
   LCORR  =      T    Harris-Foulkes like correction to forces

   POTIM  = 0.5000    time-step for ionic-motion
   TEIN   =    0.0    initial temperature
   TEBEG  =    0.0;   TEEND  =   0.0 temperature during run
   SMASS  =  -3.00    Nose mass-parameter (am)
   estimated Nose-frequenzy (Omega)   =  0.10E-29 period in steps = 0.13E+47 mass=  -0.102E-25a.u.
   SCALEE = 1.0000    scale energy and forces
   NPACO  =    256;   APACO  = 10.0  distance and # of slots for P.C.
   PSTRESS=    0.0 pullay stress

  Mass of Ions in am
   POMASS = 107.87
  Ionic Valenz
   ZVAL   =  11.00
  Atomic Wigner-Seitz radii
   RWIGS  =  -1.00
  virtual crystal weights 
   VCA    =   1.00
   NELECT =      22.0000    total number of electrons
   NUPDOWN=      -1.0000    fix difference up-down

 DOS related values:
   EMIN   =  10.00;   EMAX   =-10.00  energy-range for DOS
   EFERMI =   0.00
   ISMEAR =     0;   SIGMA  =   0.05  broadening in eV -4-tet -1-fermi 0-gaus

 Electronic relaxation 2 (details)
   IALGO  =     58    algorithm
   LDIAG  =      T    sub-space diagonalisation (order eigenvalues)
   LSUBROT=      F    optimize rotation matrix (better conditioning)
   TURBO    =      0    0=normal 1=particle mesh
   IRESTART =      0    0=no restart 2=restart with 2 vectors
   NREBOOT  =      0    no. of reboots
   NMIN     =      0    reboot dimension
   EREF     =   0.00    reference energy to select bands
   IMIX   =      4    mixing-type and parameters
     AMIX     =   0.40;   BMIX     =  1.00
     AMIX_MAG =   1.60;   BMIX_MAG =  1.00
     AMIN     =   0.10
     WC   =   100.;   INIMIX=   1;  MIXPRE=   1;  MAXMIX= -45

 Intra band minimization:
   WEIMIN = 0.0000     energy-eigenvalue tresh-hold
   EBREAK =  0.39E-08  absolut break condition
   DEPER  =   0.30     relativ break condition  

   TIME   =   0.40     timestep for ELM

  volume/ion in A,a.u.               =    4940.81     33342.21
  Fermi-wavevector in a.u.,A,eV,Ry     =   0.213767  0.403960  0.621734  0.045696
  Thomas-Fermi vector in A             =   0.985879

 Write flags
   LWAVE        =      F    write WAVECAR
   LDOWNSAMPLE  =      F    k-point downsampling of WAVECAR
   LCHARG       =      F    write CHGCAR
   LVTOT        =      F    write LOCPOT, total local potential
   LVHAR        =      F    write LOCPOT, Hartree potential only
   LELF         =      F    write electronic localiz. function (ELF)
   LORBIT       =      0    0 simple, 1 ext, 2 COOP (PROOUT), +10 PAW based schemes


 Dipole corrections
   LMONO  =      F    monopole corrections only (constant potential shift)
   LDIPOL =      T    correct potential (dipole corrections)
   IDIPOL =      3    1-x, 2-y, 3-z, 4-all directions 
   EPSILON=  1.0000000 bulk dielectric constant

 Exchange correlation treatment:
   GGA     =    RE    GGA type
   LEXCH   =    40    internal setting for exchange type
   LIBXC   =     F    Libxc                    
   VOSKOWN =     0    Vosko Wilk Nusair interpolation
   LHFCALC =     F    Hartree Fock is set to
   LHFONE  =     F    Hartree Fock one center treatment
   AEXX    =    0.0000 exact exchange contribution

 Linear response parameters
   LEPSILON=     F    determine dielectric tensor
   LRPA    =     F    only Hartree local field effects (RPA)
   LNABLA  =     F    use nabla operator in PAW spheres
   LVEL    =     F    velocity operator in full k-point grid
   CSHIFT  =0.1000    complex shift for real part using Kramers Kronig
   OMEGAMAX=  -1.0    maximum frequency
   DEG_THRESHOLD= 0.2000000E-02 threshold for treating states as degnerate
   RTIME   =   -0.100 relaxation time in fs
  (WPLASMAI=    0.000 imaginary part of plasma frequency in eV, 0.658/RTIME)
   DFIELD  = 0.0000000 0.0000000 0.0000000 field for delta impulse in time

  Optional k-point grid parameters
   LKPOINTS_OPT  =     F    use optional k-point grid
   KPOINTS_OPT_MODE=     1    mode for optional k-point grid

 Orbital magnetization related:
   ORBITALMAG=     F  switch on orbital magnetization
   LCHIMAG   =     F  perturbation theory with respect to B field
   DQ        =  0.001000  dq finite difference perturbation B field
   LLRAUG    =     F  two centre corrections for induced B field



--------------------------------------------------------------------------------------------------------


 Static calculation
 charge density and potential will be updated during run
 non-spin polarized calculation
 Conjugate gradient for all bands (Freysoldt, et al. PRB 79, 241103 (2009))
 preconditioned conjugated gradient                                        
 perform sub-space diagonalisation
    before iterative eigenvector-optimisation
 modified Broyden-mixing scheme, WC =      100.0
 initial mixing is a Kerker type mixing with AMIX =  0.4000 and BMIX =      1.0000
 Hartree-type preconditioning will be used
 using additional bands           53
 real space projection scheme for non local part
 use partial core corrections
 no Harris-corrections to forces 
 use gradient corrections 
 use of overlap-Matrix (Vanderbilt PP)
 Gauss-broadening in eV      SIGMA  =   0.05


--------------------------------------------------------------------------------------------------------


  energy-cutoff  :      520.00
  volume of cell :     9881.61
      direct lattice vectors                 reciprocal lattice vectors
    21.138852197  0.000000000  0.000000000     0.047306258  0.000000000  0.000000000
     0.000000000 21.138852197  0.000000000     0.000000000  0.047306258  0.000000000
     0.000000000  0.000000000 22.113885220     0.000000000  0.000000000  0.045220457

  length of vectors
    21.138852197 21.138852197 22.113885220     0.047306258  0.047306258  0.045220457



 k-points in units of 2pi/SCALE and weight: KPOINTS created by Atomic Simulation Env
   0.00000000  0.00000000  0.00000000       1.000

 k-points in reciprocal lattice and weights: KPOINTS created by Atomic Simulation Env
   0.00000000  0.00000000  0.00000000       1.000

 position of ions in fractional coordinates (direct lattice) 
   0.50000000  0.50000000  0.72025427
   0.50000000  0.50000000  0.60506847

 position of ions in cartesian coordinates  (Angst):
  10.56942610 10.56942610 15.92762015
  10.56942610 10.56942610 13.38041476



--------------------------------------------------------------------------------------------------------


 k-point   1 :   0.0000 0.0000 0.0000  plane waves:  265979

 maximum and minimum number of plane-waves per node :     66495    66494

 maximum number of plane-waves:    265979
 maximum index in each direction: 
   IXMAX=   39   IYMAX=   39   IZMAX=   41
   IXMIN=  -39   IYMIN=  -39   IZMIN=  -41


 real space projection operators:
  total allocation   :       1507.36 KBytes
  max/ min on nodes  :        380.67        374.77


 parallel 3D FFT for wavefunctions:
    minimum data exchange during FFTs selected (reduces bandwidth)
 parallel 3D FFT for charge:
    minimum data exchange during FFTs selected (reduces bandwidth)


 total amount of memory used by VASP MPI-rank0   125760. kBytes
=======================================================================

   base      :      30000. kBytes
   nonlr-proj:        656. kBytes
   fftplans  :      38424. kBytes
   grid      :      53473. kBytes
   one-center:         15. kBytes
   wavefun   :       3192. kBytes

     INWAV:  cpu time      0.0001: real time      0.0003
 Broyden mixing: mesh for mixing (old mesh)
   NGX = 79   NGY = 79   NGZ = 83
  (NGX  =320   NGY  =320   NGZ  =336)
  gives a total of 518003 points

 initial charge density was supplied:
 charge density of overlapping atoms calculated
 number of electron      22.0000000 magnetization 
 keeping initial charge density in first step


--------------------------------------------------------------------------------------------------------


 Maximum index for non-local projection operator         1377
 Maximum index for augmentation-charges            0 (set IRDMAX)


--------------------------------------------------------------------------------------------------------


 First call to EWALD:  gamma=   0.083
 Maximum number of real-space cells 3x 3x 3
 Maximum number of reciprocal cells 3x 3x 3

    FEWALD:  cpu time      0.0007: real time      0.0007


--------------------------------------- Iteration      1(   1)  ---------------------------------------


    POTLOK:  cpu time      0.1875: real time      0.1880
    SETDIJ:  cpu time      0.1132: real time      0.1134
    TRIAL :  cpu time      0.4305: real time      0.4310
    CORREC:  cpu time      0.0011: real time      0.0011
    --------------------------------------------
      LOOP:  cpu time      0.7348: real time      0.7362

 eigenvalue-minimisations  :   128
 total energy-change (2. order) : 0.1570770E+03  (-0.3775903E+03)
 number of electron      22.0000000 magnetization 
 augmentation part       22.0000000 magnetization 

 DIPCOR: dipole corrections for dipol
 direction  3 min pos     1,
 dipolmoment           0.000000      0.000000     -0.000072 electrons x Angstroem
 Tr[quadrupol]     -4913.663375

 energy correction for charged system         0.000000 eV
 dipol+quadrupol energy correction           -0.000000 eV
 added-field ion interaction          0.000113 eV  (added to PSCEN)


 Free energy of the ion-electron system (eV)
  ---------------------------------------------------
  alpha Z        PSCENC =         0.34442058
  Ewald energy   TEWEN  =       225.72110649
  -Hartree energ DENC   =     -2207.56135700
  -exchange      EXHF   =         0.00000000
  -V(xc)+E(xc)   XCENC  =       -24.96727606
  PAW double counting   =      2008.24765832    -1914.15143096
  entropy T*S    EENTRO =        -0.03745331
  eigenvalues    EBANDS =        -3.90163769
  atomic energy  EATOM  =      2073.38295078
  ---------------------------------------------------
  free energy    TOTEN  =       157.07698115 eV

  energy without entropy =      157.11443446  energy(sigma->0) =      157.09570781


--------------------------------------------------------------------------------------------------------




--------------------------------------- Iteration      1(   2)  ---------------------------------------


    TRIAL :  cpu time      0.9330: real time      0.9332
    CORREC:  cpu time      0.0003: real time      0.0003
    --------------------------------------------
      LOOP:  cpu time      0.9385: real time      0.9463

 eigenvalue-minimisations  :   256
 total energy-change (2. order) :-0.1507773E+03  (-0.1499194E+03)
 number of electron      22.0000000 magnetization 
 augmentation part       22.0000000 magnetization 

 DIPCOR: dipole corrections for dipol
 direction  3 min pos     1,
 dipolmoment           0.000000      0.000000     -0.000072 electrons x Angstroem
 Tr[quadrupol]     -4913.663375

 energy correction for charged system         0.000000 eV
 dipol+quadrupol energy correction           -0.000000 eV
 added-field ion interaction          0.000113 eV  (added to PSCEN)


 Free energy of the ion-electron system (eV)
  ---------------------------------------------------
  alpha Z        PSCENC =         0.34442058
  Ewald energy   TEWEN  =       225.72110649
  -Hartree energ DENC   =     -2207.56135700
  -exchange      EXHF   =         0.00000000
  -V(xc)+E(xc)   XCENC  =       -24.96727606
  PAW double counting   =      2008.24765832    -1914.15143096
  entropy T*S    EENTRO =        -0.00000000
  eigenvalues    EBANDS =      -154.71641817
  atomic energy  EATOM  =      2073.38295078
  ---------------------------------------------------
  free energy    TOTEN  =         6.29965399 eV

  energy without entropy =        6.29965399  energy(sigma->0) =        6.29965399


--------------------------------------------------------------------------------------------------------




--------------------------------------- Iteration      1(   3)  ---------------------------------------


    TRIAL :  cpu time      0.4221: real time      0.4221
    CORREC:  cpu time      0.0003: real time      0.0003
    --------------------------------------------
      LOOP:  cpu time      0.4264: real time      0.4357

 eigenvalue-minimisations  :   128
 total energy-change (2. order) :-0.8470120E+01  (-0.8470120E+01)
 number of electron      22.0000000 magnetization 
 augmentation part       22.0000000 magnetization 

 DIPCOR: dipole corrections for dipol
 direction  3 min pos     1,
 dipolmoment           0.000000      0.000000     -0.000072 electrons x Angstroem
 Tr[quadrupol]     -4913.663375

 energy correction for charged system         0.000000 eV
 dipol+quadrupol energy correction           -0.000000 eV
 added-field ion interaction          0.000113 eV  (added to PSCEN)


 Free energy of the ion-electron system (eV)
  ---------------------------------------------------
  alpha Z        PSCENC =         0.34442058
  Ewald energy   TEWEN  =       225.72110649
  -Hartree energ DENC   =     -2207.56135700
  -exchange      EXHF   =         0.00000000
  -V(xc)+E(xc)   XCENC  =       -24.96727606
  PAW double counting   =      2008.24765832    -1914.15143096
  entropy T*S    EENTRO =        -0.00000000
  eigenvalues    EBANDS =      -163.18653858
  atomic energy  EATOM  =      2073.38295078
  ---------------------------------------------------
  free energy    TOTEN  =        -2.17046643 eV

  energy without entropy =       -2.17046643  energy(sigma->0) =       -2.17046643


--------------------------------------------------------------------------------------------------------




--------------------------------------- Iteration      1(   4)  ---------------------------------------


    TRIAL :  cpu time      0.4210: real time      0.4212
    CORREC:  cpu time      0.0003: real time      0.0003
    --------------------------------------------
      LOOP:  cpu time      0.4340: real time      0.4345

 eigenvalue-minimisations  :   128
 total energy-change (2. order) :-0.4413643E-01  (-0.4413643E-01)
 number of electron      22.0000000 magnetization 
 augmentation part       22.0000000 magnetization 

 DIPCOR: dipole corrections for dipol
 direction  3 min pos     1,
 dipolmoment           0.000000      0.000000     -0.000072 electrons x Angstroem
 Tr[quadrupol]     -4913.663375

 energy correction for charged system         0.000000 eV
 dipol+quadrupol energy correction           -0.000000 eV
 added-field ion interaction          0.000113 eV  (added to PSCEN)


 Free energy of the ion-electron system (eV)
  ---------------------------------------------------
  alpha Z        PSCENC =         0.34442058
  Ewald energy   TEWEN  =       225.72110649
  -Hartree energ DENC   =     -2207.56135700
  -exchange      EXHF   =         0.00000000
  -V(xc)+E(xc)   XCENC  =       -24.96727606
  PAW double counting   =      2008.24765832    -1914.15143096
  entropy T*S    EENTRO =        -0.00000000
  eigenvalues    EBANDS =      -163.23067501
  atomic energy  EATOM  =      2073.38295078
  ---------------------------------------------------
  free energy    TOTEN  =        -2.21460286 eV

  energy without entropy =       -2.21460286  energy(sigma->0) =       -2.21460286


--------------------------------------------------------------------------------------------------------




--------------------------------------- Iteration      1(   5)  ---------------------------------------


    TRIAL :  cpu time      0.9136: real time      0.9139
    CORREC:  cpu time      0.0002: real time      0.0002
    CHARGE:  cpu time      0.6033: real time      0.6042
    --------------------------------------------
      LOOP:  cpu time      1.5221: real time      1.5314

 eigenvalue-minimisations  :   256
 total energy-change (2. order) :-0.7836040E-03  (-0.7836039E-03)
 number of electron      22.0000006 magnetization 
 augmentation part       10.6506520 magnetization 

 DIPCOR: dipole corrections for dipol
 direction  3 min pos     1,
 dipolmoment           0.000000      0.000000     -0.000072 electrons x Angstroem
 Tr[quadrupol]     -4913.663375

 energy correction for charged system         0.000000 eV
 dipol+quadrupol energy correction           -0.000000 eV
 added-field ion interaction          0.000113 eV  (added to PSCEN)


 Free energy of the ion-electron system (eV)
  ---------------------------------------------------
  alpha Z        PSCENC =         0.34442058
  Ewald energy   TEWEN  =       225.72110649
  -Hartree energ DENC   =     -2207.56135700
  -exchange      EXHF   =         0.00000000
  -V(xc)+E(xc)   XCENC  =       -24.96727606
  PAW double counting   =      2008.24765832    -1914.15143096
  entropy T*S    EENTRO =        -0.00000000
  eigenvalues    EBANDS =      -163.23145861
  atomic energy  EATOM  =      2073.38295078
  ---------------------------------------------------
  free energy    TOTEN  =        -2.21538646 eV

  energy without entropy =       -2.21538646  energy(sigma->0) =       -2.21538646


--------------------------------------------------------------------------------------------------------




--------------------------------------- Iteration      1(   6)  ---------------------------------------


    POTLOK:  cpu time      0.1512: real time      0.1512
    SETDIJ:  cpu time      0.1137: real time      0.1138
    TRIAL :  cpu time      0.2408: real time      0.2413
    CORREC:  cpu time      0.9529: real time      0.9532
    CHARGE:  cpu time      0.5993: real time      0.5993
    --------------------------------------------
      LOOP:  cpu time      2.0842: real time      2.0854

 eigenvalue-minimisations  :     0
 total energy-change (2. order) : 0.5298470E+00  (-0.2558475E+00)
 number of electron      22.0000006 magnetization 
 augmentation part       10.6601148 magnetization 

 DIPCOR: dipole corrections for dipol
 direction  3 min pos     1,
 dipolmoment           0.000000      0.000000     -0.000669 electrons x Angstroem
 Tr[quadrupol]     -4915.660563

 energy correction for charged system         0.000000 eV
 dipol+quadrupol energy correction           -0.000000 eV
 added-field ion interaction          0.001047 eV  (added to PSCEN)


 Free energy of the ion-electron system (eV)
  ---------------------------------------------------
  alpha Z        PSCENC =         0.34431367
  Ewald energy   TEWEN  =       225.72110649
  -Hartree energ DENC   =     -2224.78436784
  -exchange      EXHF   =         0.00000000
  -V(xc)+E(xc)   XCENC  =       -24.72618943
  PAW double counting   =      2120.55383841    -2028.13503081
  entropy T*S    EENTRO =        -0.00000000
  eigenvalues    EBANDS =      -144.04216072
  atomic energy  EATOM  =      2073.38295078
  ---------------------------------------------------
  free energy    TOTEN  =        -1.68553944 eV

  energy without entropy =       -1.68553944  energy(sigma->0) =       -1.68553944


--------------------------------------------------------------------------------------------------------




--------------------------------------- Iteration      1(   7)  ---------------------------------------


    POTLOK:  cpu time      0.1656: real time      0.1658
    SETDIJ:  cpu time      0.1134: real time      0.1134
    TRIAL :  cpu time      0.2349: real time      0.2349
    CORREC:  cpu time      0.9548: real time      0.9549
    CHARGE:  cpu time      0.6029: real time      0.6030
    --------------------------------------------
      LOOP:  cpu time      2.0772: real time      2.0851

 eigenvalue-minimisations  :     0
 total energy-change (2. order) :-0.2557141E+00  (-0.2920760E-01)
 number of electron      22.0000006 magnetization 
 augmentation part       10.6923382 magnetization 

 DIPCOR: dipole corrections for dipol
 direction  3 min pos     1,
 dipolmoment           0.000000      0.000000     -0.000643 electrons x Angstroem
 Tr[quadrupol]     -4915.469885

 energy correction for charged system         0.000000 eV
 dipol+quadrupol energy correction           -0.000000 eV
 added-field ion interaction          0.001008 eV  (added to PSCEN)


 Free energy of the ion-electron system (eV)
  ---------------------------------------------------
  alpha Z        PSCENC =         0.34574810
  Ewald energy   TEWEN  =       225.72110649
  -Hartree energ DENC   =     -2214.74090028
  -exchange      EXHF   =         0.00000000
  -V(xc)+E(xc)   XCENC  =       -24.89922598
  PAW double counting   =      2106.61762581    -2014.02591506
  entropy T*S    EENTRO =        -0.00000000
  eigenvalues    EBANDS =      -154.34264341
  atomic energy  EATOM  =      2073.38295078
  ---------------------------------------------------
  free energy    TOTEN  =        -1.94125356 eV

  energy without entropy =       -1.94125356  energy(sigma->0) =       -1.94125356


--------------------------------------------------------------------------------------------------------




--------------------------------------- Iteration      1(   8)  ---------------------------------------


    POTLOK:  cpu time      0.1664: real time      0.1665
    SETDIJ:  cpu time      0.1117: real time      0.1117
    TRIAL :  cpu time      0.2341: real time      0.2342
    CORREC:  cpu time      0.9488: real time      0.9489
    CHARGE:  cpu time      0.5930: real time      0.5931
    --------------------------------------------
      LOOP:  cpu time      2.0666: real time      2.0674

 eigenvalue-minimisations  :     0
 total energy-change (2. order) :-0.2929119E-01  (-0.9286666E-02)
 number of electron      22.0000006 magnetization 
 augmentation part       10.6687317 magnetization 

 DIPCOR: dipole corrections for dipol
 direction  3 min pos     1,
 dipolmoment           0.000000      0.000000     -0.000171 electrons x Angstroem
 Tr[quadrupol]     -4915.312939

 energy correction for charged system         0.000000 eV
 dipol+quadrupol energy correction           -0.000000 eV
 added-field ion interaction          0.000268 eV  (added to PSCEN)


 Free energy of the ion-electron system (eV)
  ---------------------------------------------------
  alpha Z        PSCENC =         0.34502257
  Ewald energy   TEWEN  =       225.72110649
  -Hartree energ DENC   =     -2218.56984909
  -exchange      EXHF   =         0.00000000
  -V(xc)+E(xc)   XCENC  =       -24.77586599
  PAW double counting   =      2108.92210264    -2016.37016694
  entropy T*S    EENTRO =        -0.00000000
  eigenvalues    EBANDS =      -150.62584521
  atomic energy  EATOM  =      2073.38295078
  ---------------------------------------------------
  free energy    TOTEN  =        -1.97054475 eV

  energy without entropy =       -1.97054475  energy(sigma->0) =       -1.97054475


--------------------------------------------------------------------------------------------------------




--------------------------------------- Iteration      1(   9)  ---------------------------------------


    POTLOK:  cpu time      0.1652: real time      0.1652
    SETDIJ:  cpu time      0.1121: real time      0.1121
    TRIAL :  cpu time      0.2348: real time      0.2348
    CORREC:  cpu time      0.9450: real time      0.9451
    CHARGE:  cpu time      0.5930: real time      0.5931
    --------------------------------------------
      LOOP:  cpu time      2.0632: real time      2.0711

 eigenvalue-minimisations  :     0
 total energy-change (2. order) :-0.9276507E-02  (-0.3163804E-02)
 number of electron      22.0000006 magnetization 
 augmentation part       10.6763591 magnetization 

 DIPCOR: dipole corrections for dipol
 direction  3 min pos     1,
 dipolmoment           0.000000      0.000000     -0.000037 electrons x Angstroem
 Tr[quadrupol]     -4915.250625

 energy correction for charged system         0.000000 eV
 dipol+quadrupol energy correction           -0.000000 eV
 added-field ion interaction          0.000057 eV  (added to PSCEN)


 Free energy of the ion-electron system (eV)
  ---------------------------------------------------
  alpha Z        PSCENC =         0.34450781
  Ewald energy   TEWEN  =       225.72110649
  -Hartree energ DENC   =     -2214.35423439
  -exchange      EXHF   =         0.00000000
  -V(xc)+E(xc)   XCENC  =       -24.89324131
  PAW double counting   =      2104.47094490    -2011.83088325
  entropy T*S    EENTRO =        -0.00000000
  eigenvalues    EBANDS =      -154.82097228
  atomic energy  EATOM  =      2073.38295078
  ---------------------------------------------------
  free energy    TOTEN  =        -1.97982126 eV

  energy without entropy =       -1.97982126  energy(sigma->0) =       -1.97982126


--------------------------------------------------------------------------------------------------------




--------------------------------------- Iteration      1(  10)  ---------------------------------------


    POTLOK:  cpu time      0.1566: real time      0.1566
    SETDIJ:  cpu time      0.1082: real time      0.1082
    TRIAL :  cpu time      0.2344: real time      0.2345
    CORREC:  cpu time      0.9267: real time      0.9268
    CHARGE:  cpu time      0.5868: real time      0.5870
    --------------------------------------------
      LOOP:  cpu time      2.0181: real time      2.0271

 eigenvalue-minimisations  :     0
 total energy-change (2. order) :-0.3151164E-02  (-0.6040696E-03)
 number of electron      22.0000006 magnetization 
 augmentation part       10.6761945 magnetization 

 DIPCOR: dipole corrections for dipol
 direction  3 min pos     1,
 dipolmoment           0.000000      0.000000     -0.000008 electrons x Angstroem
 Tr[quadrupol]     -4915.210519

 energy correction for charged system         0.000000 eV
 dipol+quadrupol energy correction           -0.000000 eV
 added-field ion interaction          0.000013 eV  (added to PSCEN)


 Free energy of the ion-electron system (eV)
  ---------------------------------------------------
  alpha Z        PSCENC =         0.34432267
  Ewald energy   TEWEN  =       225.72110649
  -Hartree energ DENC   =     -2215.01944195
  -exchange      EXHF   =         0.00000000
  -V(xc)+E(xc)   XCENC  =       -24.87377805
  PAW double counting   =      2105.32845221    -2012.67452068
  entropy T*S    EENTRO =        -0.00000000
  eigenvalues    EBANDS =      -154.19206389
  atomic energy  EATOM  =      2073.38295078
  ---------------------------------------------------
  free energy    TOTEN  =        -1.98297242 eV

  energy without entropy =       -1.98297242  energy(sigma->0) =       -1.98297242


--------------------------------------------------------------------------------------------------------




--------------------------------------- Iteration      1(  11)  ---------------------------------------


    POTLOK:  cpu time      0.1541: real time      0.1541
    SETDIJ:  cpu time      0.1117: real time      0.1117
    TRIAL :  cpu time      0.2344: real time      0.2344
    CORREC:  cpu time      0.9257: real time      0.9264
    CHARGE:  cpu time      0.5917: real time      0.5918
    --------------------------------------------
      LOOP:  cpu time      2.0237: real time      2.0325

 eigenvalue-minimisations  :     0
 total energy-change (2. order) :-0.6048714E-03  (-0.9299429E-04)
 number of electron      22.0000006 magnetization 
 augmentation part       10.6758625 magnetization 

 DIPCOR: dipole corrections for dipol
 direction  3 min pos     1,
 dipolmoment           0.000000      0.000000     -0.000011 electrons x Angstroem
 Tr[quadrupol]     -4915.200779

 energy correction for charged system         0.000000 eV
 dipol+quadrupol energy correction           -0.000000 eV
 added-field ion interaction          0.000018 eV  (added to PSCEN)


 Free energy of the ion-electron system (eV)
  ---------------------------------------------------
  alpha Z        PSCENC =         0.34432457
  Ewald energy   TEWEN  =       225.72110649
  -Hartree energ DENC   =     -2214.83503883
  -exchange      EXHF   =         0.00000000
  -V(xc)+E(xc)   XCENC  =       -24.87910109
  PAW double counting   =      2104.82007340    -2012.15651459
  entropy T*S    EENTRO =        -0.00000000
  eigenvalues    EBANDS =      -154.38137802
  atomic energy  EATOM  =      2073.38295078
  ---------------------------------------------------
  free energy    TOTEN  =        -1.98357729 eV

  energy without entropy =       -1.98357729  energy(sigma->0) =       -1.98357729


--------------------------------------------------------------------------------------------------------




--------------------------------------- Iteration      1(  12)  ---------------------------------------


    POTLOK:  cpu time      0.1533: real time      0.1533
    SETDIJ:  cpu time      0.1117: real time      0.1117
    TRIAL :  cpu time      0.2342: real time      0.2342
    CORREC:  cpu time      0.9203: real time      0.9204
    CHARGE:  cpu time      0.5842: real time      0.5843
    --------------------------------------------
      LOOP:  cpu time      2.0083: real time      2.0170

 eigenvalue-minimisations  :     0
 total energy-change (2. order) :-0.9359302E-04  (-0.1322953E-04)
 number of electron      22.0000006 magnetization 
 augmentation part       10.6765218 magnetization 

 DIPCOR: dipole corrections for dipol
 direction  3 min pos     1,
 dipolmoment           0.000000      0.000000     -0.000012 electrons x Angstroem
 Tr[quadrupol]     -4915.200750

 energy correction for charged system         0.000000 eV
 dipol+quadrupol energy correction           -0.000000 eV
 added-field ion interaction          0.000019 eV  (added to PSCEN)


 Free energy of the ion-electron system (eV)
  ---------------------------------------------------
  alpha Z        PSCENC =         0.34432719
  Ewald energy   TEWEN  =       225.72110649
  -Hartree energ DENC   =     -2214.75707321
  -exchange      EXHF   =         0.00000000
  -V(xc)+E(xc)   XCENC  =       -24.88142416
  PAW double counting   =      2104.52408976    -2011.85853073
  entropy T*S    EENTRO =        -0.00000000
  eigenvalues    EBANDS =      -154.45911700
  atomic energy  EATOM  =      2073.38295078
  ---------------------------------------------------
  free energy    TOTEN  =        -1.98367089 eV

  energy without entropy =       -1.98367089  energy(sigma->0) =       -1.98367089


--------------------------------------------------------------------------------------------------------




--------------------------------------- Iteration      1(  13)  ---------------------------------------


    POTLOK:  cpu time      0.1536: real time      0.1536
    SETDIJ:  cpu time      0.1113: real time      0.1113
    TRIAL :  cpu time      0.2343: real time      0.2344
    CORREC:  cpu time      0.9190: real time      0.9191
    CHARGE:  cpu time      0.5843: real time      0.5844
    --------------------------------------------
      LOOP:  cpu time      2.0082: real time      2.0158

 eigenvalue-minimisations  :     0
 total energy-change (2. order) :-0.1256299E-04  (-0.1825262E-05)
 number of electron      22.0000006 magnetization 
 augmentation part       10.6762068 magnetization 

 DIPCOR: dipole corrections for dipol
 direction  3 min pos     1,
 dipolmoment           0.000000      0.000000     -0.000012 electrons x Angstroem
 Tr[quadrupol]     -4915.200751

 energy correction for charged system         0.000000 eV
 dipol+quadrupol energy correction           -0.000000 eV
 added-field ion interaction          0.000018 eV  (added to PSCEN)


 Free energy of the ion-electron system (eV)
  ---------------------------------------------------
  alpha Z        PSCENC =         0.34432590
  Ewald energy   TEWEN  =       225.72110649
  -Hartree energ DENC   =     -2214.85690642
  -exchange      EXHF   =         0.00000000
  -V(xc)+E(xc)   XCENC  =       -24.87864094
  PAW double counting   =      2104.56498431    -2011.90072908
  entropy T*S    EENTRO =        -0.00000000
  eigenvalues    EBANDS =      -154.36077448
  atomic energy  EATOM  =      2073.38295078
  ---------------------------------------------------
  free energy    TOTEN  =        -1.98368345 eV

  energy without entropy =       -1.98368345  energy(sigma->0) =       -1.98368345


--------------------------------------------------------------------------------------------------------




--------------------------------------- Iteration      1(  14)  ---------------------------------------


    POTLOK:  cpu time      0.1569: real time      0.1569
    SETDIJ:  cpu time      0.1087: real time      0.1087
    TRIAL :  cpu time      0.2335: real time      0.2335
    CORREC:  cpu time      0.9162: real time      0.9164
    CHARGE:  cpu time      0.5825: real time      0.5826
    --------------------------------------------
      LOOP:  cpu time      2.0110: real time      2.0116

 eigenvalue-minimisations  :     0
 total energy-change (2. order) :-0.1687763E-05  (-0.4852242E-06)
 number of electron      22.0000006 magnetization 
 augmentation part       10.6760934 magnetization 

 DIPCOR: dipole corrections for dipol
 direction  3 min pos     1,
 dipolmoment           0.000000      0.000000     -0.000012 electrons x Angstroem
 Tr[quadrupol]     -4915.200844

 energy correction for charged system         0.000000 eV
 dipol+quadrupol energy correction           -0.000000 eV
 added-field ion interaction          0.000018 eV  (added to PSCEN)


 Free energy of the ion-electron system (eV)
  ---------------------------------------------------
  alpha Z        PSCENC =         0.34432557
  Ewald energy   TEWEN  =       225.72110649
  -Hartree energ DENC   =     -2214.80756273
  -exchange      EXHF   =         0.00000000
  -V(xc)+E(xc)   XCENC  =       -24.88005002
  PAW double counting   =      2104.50030871    -2011.83522668
  entropy T*S    EENTRO =        -0.00000000
  eigenvalues    EBANDS =      -154.40953725
  atomic energy  EATOM  =      2073.38295078
  ---------------------------------------------------
  free energy    TOTEN  =        -1.98368514 eV

  energy without entropy =       -1.98368514  energy(sigma->0) =       -1.98368514


--------------------------------------------------------------------------------------------------------




--------------------------------------- Iteration      1(  15)  ---------------------------------------


    POTLOK:  cpu time      0.1538: real time      0.1538
    SETDIJ:  cpu time      0.1107: real time      0.1107
    TRIAL :  cpu time      0.2347: real time      0.2347
    CORREC:  cpu time      0.9204: real time      0.9205
    EDDIAG:  cpu time      0.0985: real time      0.0987
    CHARGE:  cpu time      0.5815: real time      0.5816
    --------------------------------------------
      LOOP:  cpu time      2.1129: real time      2.1135

 eigenvalue-minimisations  :     0
 total energy-change (2. order) :-0.4439130E-06  (-0.4798175E-06)
 number of electron      22.0000006 magnetization 
 augmentation part       10.6761625 magnetization 

 DIPCOR: dipole corrections for dipol
 direction  3 min pos     1,
 dipolmoment           0.000000      0.000000     -0.000012 electrons x Angstroem
 Tr[quadrupol]     -4915.201109

 energy correction for charged system         0.000000 eV
 dipol+quadrupol energy correction           -0.000000 eV
 added-field ion interaction          0.000018 eV  (added to PSCEN)


 Free energy of the ion-electron system (eV)
  ---------------------------------------------------
  alpha Z        PSCENC =         0.34432548
  Ewald energy   TEWEN  =       225.72110649
  -Hartree energ DENC   =     -2214.79181013
  -exchange      EXHF   =         0.00000000
  -V(xc)+E(xc)   XCENC  =       -24.88050719
  PAW double counting   =      2104.47752727    -2011.81217932
  entropy T*S    EENTRO =        -0.00000000
  eigenvalues    EBANDS =      -154.42509896
  atomic energy  EATOM  =      2073.38295078
  ---------------------------------------------------
  free energy    TOTEN  =        -1.98368558 eV

  energy without entropy =       -1.98368558  energy(sigma->0) =       -1.98368558


--------------------------------------------------------------------------------------------------------


  average scaling for gradient   1.5712


 average (electrostatic) potential at core
  the test charge radii are     1.1249
  (the norm of the test charge is              1.0000)
       1 -82.0415       2 -82.0415



 E-fermi :  -4.7647     XC(G=0):  -0.1728     alpha+bet : -0.0465

 Fermi energy:        -4.7647403919

 k-point     1 :       0.0000    0.0000    0.0000
  band No.  band energies     occupation 
      1      -8.2549      2.00000
      2      -7.7370      2.00000
      3      -7.7370      2.00000
      4      -7.2059      2.00000
      5      -7.2058      2.00000
      6      -7.0041      2.00000
      7      -7.0041      2.00000
      8      -6.7296      2.00000
      9      -6.7296      2.00000
     10      -6.5702      2.00000
     11      -5.0296      2.00000
     12      -2.9719      0.00000
     13      -1.0173      0.00000
     14      -1.0173      0.00000
     15      -0.6025      0.00000
     16       0.0316      0.00000
     17       0.2555      0.00000
     18       0.2722      0.00000
     19       0.3112      0.00000
     20       0.3112      0.00000
     21       0.3367      0.00000
     22       0.3626      0.00000
     23       0.3626      0.00000
     24       0.3950      0.00000
     25       0.5649      0.00000
     26       0.6010      0.00000
     27       0.6186      0.00000
     28       0.6343      0.00000
     29       0.6564      0.00000
     30       0.6652      0.00000
     31       0.6652      0.00000
     32       0.7035      0.00000
     33       0.7035      0.00000
     34       0.7455      0.00000
     35       0.7763      0.00000
     36       0.7763      0.00000
     37       0.9151      0.00000
     38       0.9511      0.00000
     39       0.9545      0.00000
     40       1.0119      0.00000
     41       1.0125      0.00000
     42       1.0125      0.00000
     43       1.1116      0.00000
     44       1.1116      0.00000
     45       1.1159      0.00000
     46       1.2018      0.00000
     47       1.2231      0.00000
     48       1.3342      0.00000
     49       1.3342      0.00000
     50       1.4078      0.00000
     51       1.4329      0.00000
     52       1.4858      0.00000
     53       1.4858      0.00000
     54       1.4980      0.00000
     55       1.5108      0.00000
     56       1.5206      0.00000
     57       1.5399      0.00000
     58       1.5886      0.00000
     59       1.5913      0.00000
     60       1.5913      0.00000
     61       1.6123      0.00000
     62       1.6223      0.00000
     63       1.6223      0.00000
     64       1.6249      0.00000


--------------------------------------------------------------------------------------------------------


 soft charge-density along one line, spin component           1
         0         1         2         3         4         5         6         7         8         9
 total charge-density along one line

 pseudopotential strength for first ion, spin component:           1
-10.185   0.000  -0.000   0.000  -0.000 -10.165   0.000  -0.000
  0.000 -10.214   0.000   0.000  -0.000   0.000 -10.193   0.000
 -0.000   0.000 -10.232   0.000  -0.000  -0.000   0.000 -10.210
  0.000   0.000   0.000 -10.214   0.000   0.000   0.000   0.000
 -0.000  -0.000  -0.000   0.000 -10.185  -0.000  -0.000  -0.000
-10.165   0.000  -0.000   0.000  -0.000 -10.121   0.000  -0.000
  0.000 -10.193   0.000   0.000  -0.000   0.000 -10.147   0.000
 -0.000   0.000 -10.210   0.000  -0.000  -0.000   0.000 -10.164
  0.000   0.000   0.000 -10.193   0.000   0.000   0.000   0.000
 -0.000  -0.000  -0.000   0.000 -10.165  -0.000  -0.000  -0.000
 -0.000  -0.000   0.013  -0.000  -0.000  -0.000  -0.000   0.013
 -0.000  -0.000   0.022  -0.000  -0.000  -0.000  -0.000   0.021
  0.000   0.043   0.000   0.000   0.000   0.000   0.041   0.000
  0.000  -0.000   0.047   0.000   0.000   0.000  -0.000   0.045
 -0.000   0.000  -0.000   0.043  -0.000  -0.000   0.000  -0.000
  0.000   0.051   0.000   0.000   0.000   0.000   0.049   0.000
  0.000  -0.000   0.056   0.000  -0.000   0.000  -0.000   0.054
 -0.000   0.000  -0.000   0.051   0.000  -0.000   0.000  -0.000
 total augmentation occupancy for first ion, spin component:           1
  2.153  -0.000   0.000   0.000   0.000  -0.084   0.000   0.000   0.000   0.000   0.000   0.000   0.000   0.000  -0.000   0.000
 -0.000   2.287   0.000   0.000   0.000   0.000  -0.294   0.000   0.000   0.000   0.000   0.000   0.015   0.000   0.000   0.026
  0.000   0.000   2.681   0.000  -0.000   0.000   0.000  -0.812  -0.000   0.000  -1.040   0.157   0.000   0.154   0.000   0.000
  0.000   0.000   0.000   2.287   0.000   0.000  -0.000   0.000  -0.294   0.000   0.000  -0.000  -0.000   0.000   0.015   0.000
  0.000   0.000  -0.000   0.000   2.153  -0.000   0.000   0.000  -0.000  -0.084   0.000  -0.000  -0.000  -0.000  -0.000   0.000
 -0.084   0.000   0.000   0.000  -0.000   0.014   0.000   0.000   0.000  -0.000   0.000   0.000  -0.000   0.000   0.000   0.000
  0.000  -0.294   0.000  -0.000   0.000   0.000   0.291   0.000   0.000  -0.000   0.000   0.000  -0.043   0.000  -0.000   0.003
  0.000   0.000  -0.812   0.000   0.000   0.000   0.000   0.922   0.000  -0.000   0.894  -0.130   0.000  -0.212   0.000   0.000
  0.000   0.000  -0.000  -0.294  -0.000   0.000   0.000   0.000   0.291   0.000   0.000   0.000   0.000   0.000  -0.043  -0.000
  0.000   0.000   0.000   0.000  -0.084  -0.000  -0.000  -0.000   0.000   0.014  -0.000   0.000  -0.000   0.000   0.000  -0.000
  0.000   0.000  -1.040   0.000   0.000   0.000   0.000   0.894   0.000  -0.000   1.686  -0.177   0.000  -0.252   0.000   0.000
  0.000   0.000   0.157  -0.000  -0.000   0.000   0.000  -0.130   0.000   0.000  -0.177   0.022   0.000   0.032   0.000  -0.000
  0.000   0.015   0.000  -0.000  -0.000  -0.000  -0.043   0.000   0.000  -0.000   0.000   0.000   0.007   0.000   0.000  -0.001
  0.000   0.000   0.154   0.000  -0.000   0.000   0.000  -0.212   0.000   0.000  -0.252   0.032   0.000   0.053  -0.000   0.000
 -0.000   0.000   0.000   0.015  -0.000   0.000  -0.000   0.000  -0.043   0.000   0.000   0.000   0.000  -0.000   0.007   0.000
  0.000   0.026   0.000   0.000   0.000   0.000   0.003   0.000  -0.000  -0.000   0.000  -0.000  -0.001   0.000   0.000   0.000
  0.000   0.000   0.015   0.000  -0.000   0.000  -0.000   0.019   0.000  -0.000   0.020  -0.002   0.000  -0.005  -0.000   0.000
  0.000   0.000   0.000   0.026  -0.000   0.000  -0.000   0.000   0.003  -0.000  -0.000  -0.000   0.000  -0.000  -0.001   0.000


------------------------ aborting loop because EDIFF is reached ----------------------------------------


    FORLOC:  cpu time      0.0023: real time      0.0023
    FORNL :  cpu time      0.1173: real time      0.1175
    STRESS:  cpu time      0.3532: real time      0.3533
    FORCOR:  cpu time      0.1089: real time      0.1090
    OFIELD:  cpu time      0.0007: real time      0.0007

  Hirshfeld charges:
            ion         q(e)     
   ------------------------------
      1     Ag       0.00000085
      2     Ag      -0.00000085

  Atomic reference data used in the T-S method for vdW correction:
            C6at              R0at           ALPHAat      REFSTATE
            (au)              (au)            (au)                
   ---------------------------------------------------------------
   Ag        339.000          3.817         50.600         0

  Tkatchenko/Scheffler method for vdW energy calculation
  ---------------------------------------------------------------------------------------------

  Parameters of vdW forcefield:
            C6ts              R0ts           ALPHAts        RELVOL
            (au)              (au)            (au)                
   ---------------------------------------------------------------
   Ag        315.734          3.772         48.833          0.96507188
   Ag        315.732          3.772         48.832          0.96506817

  vdW correction parametrized for the method 	+)Q

  IVDW =  20
  VDW_RADIUS =    50.000 A
  VDW_IDAMPF =  0
  VDW_S6 =     1.000
  VDW_SR =     0.600
  VDW_D =    20.000
  LVDW_ONECELL = F F F
  LVDW_SAMETYPE T
  LVDW_EWALD = F

  Number of pair interactions contributing to vdW energy:     165
  Edisp (eV):   -0.53896
    FORVDW:  cpu time      5.5692: real time      5.5701

  FORCE on cell =-STRESS in cart. coord.  units (eV):
  Direction    XX          YY          ZZ          XY          YZ          ZX
  --------------------------------------------------------------------------------------
  Alpha Z     0.34431     0.34431     0.34431
  Ewald    -147.81632  -147.81632   521.35382    -0.00000    -0.00000    -0.00000
  Hartree   577.87511   577.87511  1059.05802     0.00000    -0.00000    -0.00000
  E(xc)    -116.67004  -116.67004  -115.59501     0.00000     0.00000     0.00000
  Local    -750.65347  -750.65347 -1890.33760    -0.00000     0.00000     0.00000
  n-local   -24.35480   -24.35480   -27.37408     0.00000    -0.00000    -0.00000
  augment   183.67299   183.67299   181.66530    -0.00000     0.00000     0.00000
  Kinetic   277.58885   277.58885   271.60371    -0.00000     0.00000     0.00000
  Fock        0.00000     0.00000     0.00000     0.00000     0.00000     0.00000
  vdW        -0.00007    -0.00007    -0.71494    -0.00000     0.00000    -0.00000
  -------------------------------------------------------------------------------------
  Total      -0.01344    -0.01344     0.00352    -0.00000     0.00000     0.00000
  in kB      -0.00218    -0.00218     0.00057    -0.00000     0.00000     0.00000
  external pressure =       -0.00 kB  Pullay stress =        0.00 kB


 VOLUME and BASIS-vectors are now :
 -----------------------------------------------------------------------------
  energy-cutoff  :      520.00
  volume of cell :     9881.61
      direct lattice vectors                 reciprocal lattice vectors
    21.138852197  0.000000000  0.000000000     0.047306258  0.000000000  0.000000000
     0.000000000 21.138852197  0.000000000     0.000000000  0.047306258  0.000000000
     0.000000000  0.000000000 22.113885220     0.000000000  0.000000000  0.045220457

  length of vectors
    21.138852197 21.138852197 22.113885220     0.047306258  0.047306258  0.045220457


 FORCES acting on ions:
    Electron-Ion                     Ewald-Force                    Non-Local-Force
 -----------------------------------------------------------------------------------------------
   -.249E-12 0.255E-11 -.274E+03   -.271E-16 0.110E-16 0.267E+03   -.103E-24 0.000E+00 0.775E+01
   -.486E-13 0.239E-11 0.274E+03   -.156E-16 0.865E-17 -.267E+03   0.000E+00 0.000E+00 -.775E+01
 -----------------------------------------------------------------------------------------------
   -.136E-11 0.245E-11 0.409E-04   -.427E-16 0.197E-16 0.000E+00   -.103E-24 0.000E+00 -.178E-14


 POSITION                                       TOTAL-FORCE (eV/Angst)
 -----------------------------------------------------------------------------------
     10.56943     10.56943     15.92762         0.000000      0.000000      0.002491
     10.56943     10.56943     13.38041        -0.000000     -0.000000     -0.002491
 -----------------------------------------------------------------------------------
    total drift:                               -0.000000      0.000000      0.000041


--------------------------------------------------------------------------------------------------------



  FREE ENERGIE OF THE ION-ELECTRON SYSTEM (eV)
  ---------------------------------------------------
  free  energy   TOTEN  =        -2.52264511 eV

  energy  without entropy=       -2.52264511  energy(sigma->0) =       -2.52264511



--------------------------------------------------------------------------------------------------------


    POTLOK:  cpu time      0.2646: real time      0.2646


--------------------------------------------------------------------------------------------------------


     LOOP+:  cpu time     31.0700: real time     31.1567
    4ORBIT:  cpu time      0.0000: real time      0.0000

 total amount of memory used by VASP MPI-rank0   125760. kBytes
=======================================================================

   base      :      30000. kBytes
   nonlr-proj:        656. kBytes
   fftplans  :      38424. kBytes
   grid      :      53473. kBytes
   one-center:         15. kBytes
   wavefun   :       3192. kBytes

  
  
 General timing and accounting informations for this job:
 ========================================================
  
                  Total CPU time used (sec):       45.766
                            User time (sec):       44.302
                          System time (sec):        1.464
                         Elapsed time (sec):       50.297
  
                   Maximum memory used (kb):      317772.
                   Average memory used (kb):          N/A
  
                          Minor page faults:        60427
                          Major page faults:            0
                 Voluntary context switches:         6478
