 vasp.6.3.0 20Jan22 (build Apr  1 2022 16:44:48) complex                         
 executed on        HPECrayEX_GCC date 2022.12.11  16:24:29
 running 1024 mpi-ranks, with    1 threads/rank
 distrk:  each k-point on  512 cores,    2 groups
 distr:  one band on NCORE=   4 cores,  128 groups


--------------------------------------------------------------------------------------------------------


 INCAR:
   SYSTEM = MgO-rocksalt
   ISMEAR = 0
   SIGMA = 0.05
   EDIFF = 1E-6
   ALGO = ALL
   ISTART = 0
   IBRION = -1
   NSW = 0
   ISYM = 2
   DIPOL = 0.5 0.5 0.5
   IDIPOL = 3
   LDIPOL = .TRUE.
   METAGGA = R2SCAN
   ENCUT = 520
   PREC = Accurate
   LASPH = .TRUE.
   LREAL = Auto
   ISPIN = 1
   NELM = 200
   NELMIN = 8
   NCORE = 4
   KPAR = 2
   LWAVE = .FALSE.
   LCHARG = .FALSE.

 POTCAR:    PAW_PBE Cu 22Jun2005                  
 POTCAR:    PAW_PBE Mg_pv 13Apr2007               
 POTCAR:    PAW_PBE O 08Apr2002                   
 POTCAR:    PAW_PBE Cu 22Jun2005                  
   SHA256 =  0e71e558f37a4e8407882b4609ceaae59938afaad9ced71dfe8490308a0ab630 Cu/POTCAR             
   COPYR  = (c) Copyright 22Jun2005 Georg Kresse                                                    
   COPYR  = This file is part of the software VASP. Any use, copying, and all other rights are regul
   COPYR  = If you do not have a valid VASP license, you may not use, copy or distribute this file. 
   VRHFIN =Cu: d10 p1                                                                               
   LEXCH  = PE                                                                                      
   EATOM  =  1390.9808 eV,  102.2342 Ry                                                             
                                                                                                    
   TITEL  = PAW_PBE Cu 22Jun2005                                                                    
   LULTRA =        F    use ultrasoft PP ?                                                          
   IUNSCR =        1    unscreen: 0-lin 1-nonlin 2-no                                               
   RPACOR =    2.000    partial core radius                                                         
   POMASS =   63.546; ZVAL   =   11.000    mass and valenz                                          
   RCORE  =    2.300    outmost cutoff radius                                                       
   RWIGS  =    2.200; RWIGS  =    1.164    wigner-seitz radius (au A)                               
   ENMAX  =  295.446; ENMIN  =  221.585 eV                                                          
   ICORE  =        3    local potential                                                             
   LCOR   =        T    correct aug charges                                                         
   LPAW   =        T    paw PP                                                                      
   EAUG   =  586.980                                                                                
   DEXC   =    0.000                                                                                
   RMAX   =    2.344    core radius for proj-oper                                                   
   RAUG   =    1.300    factor for augmentation sphere                                              
   RDEP   =    2.302    radius for radial grids                                                     
   RDEPT  =    1.771    core radius for aug-charge                                                  
                                                                                                    
   Atomic configuration                                                                             
    9 entries                                                                                       
     n  l   j            E        occ.                                                              
     1  0  0.50     -8850.2468   2.0000                                                             
     2  0  0.50     -1062.3498   2.0000                                                             
     2  1  1.50      -916.8226   6.0000                                                             
     3  0  0.50      -114.6929   2.0000                                                             
     3  1  1.50       -72.1325   6.0000                                                             
     3  2  2.50        -5.0394  10.0000                                                             
     4  0  0.50        -4.6097   1.0000                                                             
     4  1  0.50        -4.0817   0.0000                                                             
     4  3  2.50        -1.3606   0.0000                                                             
   Description                                                                                      
     l       E           TYP  RCUT    TYP  RCUT                                                     
     2     -5.0393973     23  2.200                                                                 
     2     10.8846608     23  2.200                                                                 
     0     -4.6097109     23  2.200                                                                 
     0      8.2520465     23  2.200                                                                 
     1     -2.7211652     23  2.200                                                                 
     1     21.7055443     23  2.200                                                                 
     3      2.7211652     23  2.300                                                                 
  local pseudopotential read in
  partial core-charges read in
  partial kinetic energy density read in
  atomic valenz-charges read in
  non local Contribution for L=           2  read in
    real space projection operators read in
  non local Contribution for L=           2  read in
    real space projection operators read in
  non local Contribution for L=           0  read in
    real space projection operators read in
  non local Contribution for L=           0  read in
    real space projection operators read in
  non local Contribution for L=           1  read in
    real space projection operators read in
  non local Contribution for L=           1  read in
    real space projection operators read in
    PAW grid and wavefunctions read in

   number of l-projection  operators is LMAX  =           6
   number of lm-projection operators is LMMAX =          18

 POTCAR:    PAW_PBE Mg_pv 13Apr2007               
   SHA256 =  f474ac0dd33840b9ae76c01d57fea79fdf77cdfbb07d5ade72c65f83c709b62b Mg_pv/POTCAR          
   COPYR  = (c) Copyright 13Apr2007 Georg Kresse                                                    
   COPYR  = This file is part of the software VASP. Any use, copying, and all other rights are regul
   COPYR  = If you do not have a valid VASP license, you may not use, copy or distribute this file. 
   VRHFIN =Mg: p6s2                                                                                 
   LEXCH  = PE                                                                                      
   EATOM  =  1056.7344 eV,   77.6678 Ry                                                             
                                                                                                    
   TITEL  = PAW_PBE Mg_pv 13Apr2007                                                                 
   LULTRA =        F    use ultrasoft PP ?                                                          
   IUNSCR =        1    unscreen: 0-lin 1-nonlin 2-no                                               
   RPACOR =    1.500    partial core radius                                                         
   POMASS =   24.305; ZVAL   =    8.000    mass and valenz                                          
   RCORE  =    2.000    outmost cutoff radius                                                       
   RWIGS  =    2.000; RWIGS  =    1.058    wigner-seitz radius (au A)                               
   ENMAX  =  403.929; ENMIN  =  302.947 eV                                                          
   RCLOC  =    1.506    cutoff for local pot                                                        
   LCOR   =        T    correct aug charges                                                         
   LPAW   =        T    paw PP                                                                      
   EAUG   =  758.780                                                                                
   DEXC   =    0.000                                                                                
   RMAX   =    2.045    core radius for proj-oper                                                   
   RAUG   =    1.300    factor for augmentation sphere                                              
   RDEP   =    2.025    radius for radial grids                                                     
   RDEPT  =    1.557    core radius for aug-charge                                                  
                                                                                                    
   Atomic configuration                                                                             
    5 entries                                                                                       
     n  l   j            E        occ.                                                              
     1  0  0.50     -1259.6230   2.0000                                                             
     2  0  0.50       -79.8442   2.0000                                                             
     2  1  1.50       -46.6121   6.0000                                                             
     3  0  0.50        -4.7055   2.0000                                                             
     3  2  1.50        -1.3606   0.0000                                                             
   Description                                                                                      
     l       E           TYP  RCUT    TYP  RCUT                                                     
     1    -46.6121073     23  1.600                                                                 
     1      2.7211652     23  1.600                                                                 
     0     -4.7054661     23  2.000                                                                 
     0     61.2262170     23  2.000                                                                 
     2     -1.3605826     23  2.000                                                                 
  local pseudopotential read in
  partial core-charges read in
  partial kinetic energy density read in
  atomic valenz-charges read in
  non local Contribution for L=           1  read in
    real space projection operators read in
  non local Contribution for L=           1  read in
    real space projection operators read in
  non local Contribution for L=           0  read in
    real space projection operators read in
  non local Contribution for L=           0  read in
    real space projection operators read in
  non local Contribution for L=           2  read in
    real space projection operators read in
    PAW grid and wavefunctions read in

   number of l-projection  operators is LMAX  =           5
   number of lm-projection operators is LMMAX =          13

 POTCAR:    PAW_PBE O 08Apr2002                   
   SHA256 =  818f92134a0a090dccd8ba1447fa70422a3b330e708bb4f08108d8ae51209ddf O/POTCAR              
   COPYR  = (c) Copyright 08Apr2002 Georg Kresse                                                    
   COPYR  = This file is part of the software VASP. Any use, copying, and all other rights are regul
   COPYR  = If you do not have a valid VASP license, you may not use, copy or distribute this file. 
   VRHFIN =O: s2p4                                                                                  
   LEXCH  = PE                                                                                      
   EATOM  =   432.3788 eV,   31.7789 Ry                                                             
                                                                                                    
   TITEL  = PAW_PBE O 08Apr2002                                                                     
   LULTRA =        F    use ultrasoft PP ?                                                          
   IUNSCR =        1    unscreen: 0-lin 1-nonlin 2-no                                               
   RPACOR =    1.200    partial core radius                                                         
   POMASS =   16.000; ZVAL   =    6.000    mass and valenz                                          
   RCORE  =    1.520    outmost cutoff radius                                                       
   RWIGS  =    1.550; RWIGS  =    0.820    wigner-seitz radius (au A)                               
   ENMAX  =  400.000; ENMIN  =  300.000 eV                                                          
   ICORE  =        2    local potential                                                             
   LCOR   =        T    correct aug charges                                                         
   LPAW   =        T    paw PP                                                                      
   EAUG   =  605.392                                                                                
   DEXC   =    0.000                                                                                
   RMAX   =    1.553    core radius for proj-oper                                                   
   RAUG   =    1.300    factor for augmentation sphere                                              
   RDEP   =    1.550    radius for radial grids                                                     
   RDEPT  =    1.329    core radius for aug-charge                                                  
                                                                                                    
   Atomic configuration                                                                             
    4 entries                                                                                       
     n  l   j            E        occ.                                                              
     1  0  0.50      -514.6923   2.0000                                                             
     2  0  0.50       -23.9615   2.0000                                                             
     2  1  0.50        -9.0305   4.0000                                                             
     3  2  1.50        -9.5241   0.0000                                                             
   Description                                                                                      
     l       E           TYP  RCUT    TYP  RCUT                                                     
     0    -23.9615318     23  1.200                                                                 
     0     -9.5240782     23  1.200                                                                 
     1     -9.0304911     23  1.520                                                                 
     1      8.1634956     23  1.520                                                                 
     2     -9.5240782      7  1.500                                                                 
  local pseudopotential read in
  partial core-charges read in
  partial kinetic energy density read in
  kinetic energy density of atom read in
  atomic valenz-charges read in
  non local Contribution for L=           0  read in
    real space projection operators read in
  non local Contribution for L=           0  read in
    real space projection operators read in
  non local Contribution for L=           1  read in
    real space projection operators read in
  non local Contribution for L=           1  read in
    real space projection operators read in
    PAW grid and wavefunctions read in

   number of l-projection  operators is LMAX  =           4
   number of lm-projection operators is LMMAX =           8

 Optimization of the real space projectors (new method)

 maximal supplied QI-value         = 16.25
 optimisation between [QCUT,QGAM] = [ 11.54, 23.24] = [ 37.28,151.24] Ry 
 Optimized for a Real-space Cutoff    1.53 Angstroem

   l    n(q)    QCUT    max X(q) W(low)/X(q) W(high)/X(q)  e(spline) 
   2     10    11.539     4.610    0.96E-04    0.13E-03    0.19E-06
   2     10    11.539     8.522    0.16E-03    0.21E-03    0.28E-06
   0     11    11.539    51.609    0.45E-04    0.31E-04    0.11E-06
   0     11    11.539    27.747    0.39E-04    0.29E-04    0.10E-06
   1     10    11.539    20.408    0.70E-05    0.38E-04    0.18E-06
   1     10    11.539    13.425    0.66E-05    0.34E-04    0.17E-06
 Optimization of the real space projectors (new method)

 maximal supplied QI-value         = 18.90
 optimisation between [QCUT,QGAM] = [ 11.53, 23.24] = [ 37.21,151.29] Ry 
 Optimized for a Real-space Cutoff    1.28 Angstroem

   l    n(q)    QCUT    max X(q) W(low)/X(q) W(high)/X(q)  e(spline) 
   1      8    11.527     2.974    0.44E-04    0.56E-04    0.12E-06
   1      8    11.527     4.279    0.12E-03    0.12E-03    0.26E-06
   0      9    11.527    16.381    0.46E-04    0.64E-04    0.78E-07
   0      9    11.527     5.611    0.26E-04    0.43E-04    0.55E-07
   2      8    11.527     4.652    0.22E-03    0.72E-04    0.47E-07
 Optimization of the real space projectors (new method)

 maximal supplied QI-value         = 24.76
 optimisation between [QCUT,QGAM] = [ 11.64, 23.27] = [ 37.91,151.63] Ry 
 Optimized for a Real-space Cutoff    1.14 Angstroem

   l    n(q)    QCUT    max X(q) W(low)/X(q) W(high)/X(q)  e(spline) 
   0      8    11.635    20.381    0.10E-03    0.33E-03    0.24E-06
   0      8    11.635    15.268    0.11E-03    0.35E-03    0.26E-06
   1      7    11.635     5.964    0.24E-03    0.31E-03    0.30E-06
   1      7    11.635     5.382    0.22E-03    0.25E-03    0.26E-06
  PAW_PBE Cu 22Jun2005                  :
 energy of atom  1       EATOM=-1390.9808
 kinetic energy error for atom=    0.0037 (will be added to EATOM!!)
  PAW_PBE Mg_pv 13Apr2007               :
 energy of atom  2       EATOM=-1056.7344
 kinetic energy error for atom=    0.0340 (will be added to EATOM!!)
  PAW_PBE O 08Apr2002                   :
 energy of atom  3       EATOM= -432.3788
 kinetic energy error for atom=    0.0208 (will be added to EATOM!!)


 POSCAR: Cu Mg  O
  positions in direct lattice
  No initial velocities read in

 METAGGA = R2SCA    LMAXTAU =  6    LMIXTAU =  F

 exchange correlation table for  LEXCH =        8
   RHO(1)=    0.500       N(1)  =     2000
   RHO(2)=  100.500       N(2)  =     4000



--------------------------------------------------------------------------------------------------------


 ion  position               nearest neighbor table
   1  0.654  0.500  0.605-   2 2.30  73 2.54
   2  0.546  0.500  0.605-   1 2.30  73 2.54
   3  0.000  0.000  0.407- 105 2.11 106 2.11 121 2.11 186 2.11 103 2.11
   4  0.100  0.100  0.407- 105 2.11 106 2.11 110 2.11 125 2.11 104 2.11
   5  0.000  0.100  0.503- 103 2.11 104 2.11 107 2.11 184 2.11 105 2.11
   6  0.100  0.000  0.503- 103 2.11 104 2.11 120 2.11 123 2.11 106 2.11
   7  0.000  0.200  0.407- 109 2.11 105 2.11 110 2.11 190 2.11 107 2.11
   8  0.100  0.300  0.407- 110 2.11 109 2.11 114 2.11 129 2.11 108 2.11
   9  0.000  0.300  0.503- 107 2.11 108 2.11 111 2.11 188 2.11 109 2.11
  10  0.100  0.200  0.503- 108 2.11 107 2.11 104 2.11 127 2.11 110 2.11
  11  0.000  0.400  0.407- 109 2.11 113 2.11 114 2.11 194 2.11 111 2.11
  12  0.100  0.500  0.407- 113 2.11 114 2.11 118 2.11 133 2.11 112 2.11
  13  0.000  0.500  0.503- 111 2.11 112 2.11 115 2.11 192 2.11 113 2.11
  14  0.100  0.400  0.503- 108 2.11 111 2.11 112 2.11 131 2.11 114 2.11
  15  0.000  0.600  0.407- 113 2.11 117 2.11 118 2.11 198 2.11 115 2.11
  16  0.100  0.700  0.407- 122 2.11 118 2.11 117 2.11 137 2.11 116 2.11
  17  0.000  0.700  0.503- 119 2.11 116 2.11 115 2.11 196 2.11 117 2.11
  18  0.100  0.600  0.503- 112 2.11 115 2.11 116 2.11 135 2.11 118 2.11
  19  0.000  0.800  0.407- 117 2.11 121 2.11 122 2.11 202 2.11 119 2.11
  20  0.100  0.900  0.407- 106 2.11 121 2.11 122 2.11 141 2.11 120 2.11
  21  0.000  0.900  0.503- 103 2.11 119 2.11 120 2.11 200 2.11 121 2.11
  22  0.100  0.800  0.503- 116 2.11 119 2.11 120 2.11 139 2.11 122 2.11
  23  0.200  0.000  0.407- 126 2.11 125 2.11 106 2.11 141 2.11 123 2.11
  24  0.300  0.100  0.407- 125 2.11 126 2.11 130 2.11 145 2.11 124 2.11
  25  0.200  0.100  0.503- 124 2.11 123 2.11 104 2.11 127 2.11 125 2.11
  26  0.300  0.000  0.503- 123 2.11 124 2.11 140 2.11 143 2.11 126 2.11
  27  0.200  0.200  0.407- 129 2.11 130 2.11 110 2.11 125 2.11 127 2.11
  28  0.300  0.300  0.407- 129 2.11 130 2.11 134 2.11 149 2.11 128 2.11
  29  0.200  0.300  0.503- 127 2.11 128 2.11 108 2.11 131 2.11 129 2.11
  30  0.300  0.200  0.503- 127 2.11 128 2.11 124 2.11 147 2.11 130 2.11
  31  0.200  0.400  0.407- 134 2.11 129 2.11 133 2.11 114 2.11 131 2.11
  32  0.300  0.500  0.407- 133 2.11 134 2.11 138 2.11 153 2.11 132 2.11
  33  0.200  0.500  0.503- 132 2.11 131 2.11 112 2.11 135 2.11 133 2.11
  34  0.300  0.400  0.503- 131 2.11 128 2.11 132 2.11 151 2.11 134 2.11
  35  0.200  0.600  0.407- 138 2.11 133 2.11 137 2.11 118 2.11 135 2.11
  36  0.300  0.700  0.407- 137 2.11 142 2.11 138 2.11 157 2.11 136 2.11
  37  0.200  0.700  0.503- 136 2.11 139 2.11 116 2.11 135 2.11 137 2.11
  38  0.300  0.600  0.503- 135 2.11 132 2.11 136 2.11 155 2.11 138 2.11
  39  0.200  0.800  0.407- 137 2.11 142 2.11 141 2.11 122 2.11 139 2.11
  40  0.300  0.900  0.407- 141 2.11 126 2.11 142 2.11 161 2.11 140 2.11
  41  0.200  0.900  0.503- 140 2.11 123 2.11 139 2.11 120 2.11 141 2.11
  42  0.300  0.800  0.503- 136 2.11 139 2.11 140 2.11 159 2.11 142 2.11
  43  0.400  0.000  0.407- 126 2.11 145 2.11 146 2.11 161 2.11 143 2.11
  44  0.500  0.100  0.407- 145 2.11 146 2.11 150 2.11 165 2.11 144 2.11
  45  0.400  0.100  0.503- 124 2.11 143 2.11 144 2.11 147 2.11 145 2.11
  46  0.500  0.000  0.503- 143 2.11 144 2.11 160 2.11 163 2.11 146 2.11
  47  0.400  0.200  0.407- 149 2.11 145 2.11 130 2.11 150 2.11 147 2.11
  48  0.500  0.300  0.407- 150 2.11 149 2.11 154 2.11 169 2.11 148 2.11
  49  0.400  0.300  0.503- 147 2.11 128 2.11 148 2.11 151 2.11 149 2.11
  50  0.500  0.200  0.503- 148 2.11 147 2.11 144 2.11 167 2.11 150 2.11
  51  0.400  0.400  0.407- 134 2.11 149 2.11 153 2.11 154 2.11 151 2.11
  52  0.500  0.500  0.407- 153 2.11 154 2.11 158 2.11 173 2.11 152 2.11
  53  0.400  0.500  0.503- 132 2.11 151 2.11 152 2.11 155 2.11 153 2.11
  54  0.500  0.400  0.503- 148 2.11 151 2.11 152 2.11 171 2.11 154 2.11
  55  0.400  0.600  0.407- 138 2.11 153 2.11 157 2.11 158 2.11 155 2.11
  56  0.500  0.700  0.407- 162 2.11 158 2.11 157 2.11 177 2.11 156 2.11
  57  0.400  0.700  0.503- 159 2.11 155 2.11 156 2.11 136 2.11 157 2.11
  58  0.500  0.600  0.503- 152 2.11 155 2.11 156 2.11 175 2.11 158 2.11
  59  0.400  0.800  0.407- 157 2.11 142 2.11 161 2.11 162 2.11 159 2.11
  60  0.500  0.900  0.407- 146 2.11 161 2.11 162 2.11 181 2.11 160 2.11
  61  0.400  0.900  0.503- 140 2.11 143 2.11 159 2.11 160 2.11 161 2.11
  62  0.500  0.800  0.503- 156 2.11 159 2.11 160 2.11 179 2.11 162 2.11
  63  0.600  0.000  0.407- 146 2.11 165 2.11 166 2.11 181 2.11 163 2.11
  64  0.700  0.100  0.407- 185 2.11 166 2.11 170 2.11 165 2.11 164 2.11
  65  0.600  0.100  0.503- 144 2.11 163 2.11 164 2.11 167 2.11 165 2.11
  66  0.700  0.000  0.503- 183 2.11 164 2.11 180 2.11 163 2.11 166 2.11
  67  0.600  0.200  0.407- 169 2.11 165 2.11 150 2.11 170 2.11 167 2.11
  68  0.700  0.300  0.407- 170 2.11 189 2.11 174 2.11 169 2.11 168 2.11
  69  0.600  0.300  0.503- 167 2.11 148 2.11 168 2.11 171 2.11 169 2.11
  70  0.700  0.200  0.503- 168 2.11 187 2.11 164 2.11 167 2.11 170 2.11
  71  0.600  0.400  0.407- 154 2.11 169 2.11 173 2.11 174 2.11 171 2.11
  72  0.700  0.500  0.407- 193 2.11 174 2.11 178 2.11 173 2.11 172 2.11
  73  0.600  0.500  0.503- 152 2.11 171 2.11 172 2.11 175 2.11 173 2.11   1 2.54   2 2.54
  74  0.700  0.400  0.503- 191 2.11 171 2.11 172 2.11 168 2.11 174 2.11
  75  0.600  0.600  0.407- 158 2.11 173 2.11 177 2.11 178 2.11 175 2.11
  76  0.700  0.700  0.407- 182 2.11 197 2.11 177 2.11 178 2.11 176 2.11
  77  0.600  0.700  0.503- 179 2.11 175 2.11 176 2.11 156 2.11 177 2.11
  78  0.700  0.600  0.503- 195 2.11 175 2.11 176 2.11 172 2.11 178 2.11
  79  0.600  0.800  0.407- 177 2.11 162 2.11 181 2.11 182 2.11 179 2.11
  80  0.700  0.900  0.407- 201 2.11 181 2.11 182 2.11 166 2.11 180 2.11
  81  0.600  0.900  0.503- 160 2.11 163 2.11 179 2.11 180 2.11 181 2.11
  82  0.700  0.800  0.503- 176 2.11 199 2.11 180 2.11 179 2.11 182 2.11
  83  0.800  0.000  0.407- 166 2.11 185 2.11 186 2.11 201 2.11 183 2.11
  84  0.900  0.100  0.407- 105 2.11 185 2.11 186 2.11 190 2.11 184 2.11
  85  0.800  0.100  0.503- 164 2.11 183 2.11 184 2.11 187 2.11 185 2.11
  86  0.900  0.000  0.503- 103 2.11 183 2.11 184 2.11 200 2.11 186 2.11
  87  0.800  0.200  0.407- 170 2.11 189 2.11 185 2.11 190 2.11 187 2.11
  88  0.900  0.300  0.407- 190 2.11 189 2.11 109 2.11 194 2.11 188 2.11
  89  0.800  0.300  0.503- 168 2.11 187 2.11 188 2.11 191 2.11 189 2.11
  90  0.900  0.200  0.503- 188 2.11 184 2.11 187 2.11 107 2.11 190 2.11
  91  0.800  0.400  0.407- 174 2.11 189 2.11 193 2.11 194 2.11 191 2.11
  92  0.900  0.500  0.407- 113 2.11 193 2.11 194 2.11 198 2.11 192 2.11
  93  0.800  0.500  0.503- 172 2.11 191 2.11 192 2.11 195 2.11 193 2.11
  94  0.900  0.400  0.503- 111 2.11 188 2.11 191 2.11 192 2.11 194 2.11
  95  0.800  0.600  0.407- 178 2.11 193 2.11 197 2.11 198 2.11 195 2.11
  96  0.900  0.700  0.407- 202 2.11 197 2.11 198 2.11 117 2.11 196 2.11
  97  0.800  0.700  0.503- 176 2.11 199 2.11 196 2.11 195 2.11 197 2.11
  98  0.900  0.600  0.503- 115 2.11 192 2.11 195 2.11 196 2.11 198 2.11
  99  0.800  0.800  0.407- 182 2.11 197 2.11 201 2.11 202 2.11 199 2.11
 100  0.900  0.900  0.407- 121 2.11 186 2.11 201 2.11 202 2.11 200 2.11
 101  0.800  0.900  0.503- 180 2.11 183 2.11 199 2.11 200 2.11 201 2.11
 102  0.900  0.800  0.503- 196 2.11 119 2.11 199 2.11 200 2.11 202 2.11
 103  0.000  0.000  0.503-   5 2.11   6 2.11  21 2.11  86 2.11   3 2.11
 104  0.100  0.100  0.503-   5 2.11   6 2.11  10 2.11  25 2.11   4 2.11
 105  0.000  0.100  0.407-   3 2.11   4 2.11   7 2.11  84 2.11   5 2.11
 106  0.100  0.000  0.407-   3 2.11   4 2.11  20 2.11  23 2.11   6 2.11
 107  0.000  0.200  0.503-   9 2.11   5 2.11  10 2.11  90 2.11   7 2.11
 108  0.100  0.300  0.503-  10 2.11   9 2.11  14 2.11  29 2.11   8 2.11
 109  0.000  0.300  0.407-   7 2.11   8 2.11  11 2.11  88 2.11   9 2.11
 110  0.100  0.200  0.407-   8 2.11   7 2.11   4 2.11  27 2.11  10 2.11
 111  0.000  0.400  0.503-   9 2.11  13 2.11  14 2.11  94 2.11  11 2.11
 112  0.100  0.500  0.503-  13 2.11  14 2.11  18 2.11  33 2.11  12 2.11
 113  0.000  0.500  0.407-  11 2.11  12 2.11  15 2.11  92 2.11  13 2.11
 114  0.100  0.400  0.407-   8 2.11  11 2.11  12 2.11  31 2.11  14 2.11
 115  0.000  0.600  0.503-  13 2.11  17 2.11  18 2.11  98 2.11  15 2.11
 116  0.100  0.700  0.503-  22 2.11  18 2.11  17 2.11  37 2.11  16 2.11
 117  0.000  0.700  0.407-  19 2.11  16 2.11  15 2.11  96 2.11  17 2.11
 118  0.100  0.600  0.407-  12 2.11  15 2.11  16 2.11  35 2.11  18 2.11
 119  0.000  0.800  0.503-  17 2.11  21 2.11  22 2.11 102 2.11  19 2.11
 120  0.100  0.900  0.503-   6 2.11  21 2.11  22 2.11  41 2.11  20 2.11
 121  0.000  0.900  0.407-   3 2.11  19 2.11  20 2.11 100 2.11  21 2.11
 122  0.100  0.800  0.407-  16 2.11  19 2.11  20 2.11  39 2.11  22 2.11
 123  0.200  0.000  0.503-  26 2.11  25 2.11   6 2.11  41 2.11  23 2.11
 124  0.300  0.100  0.503-  25 2.11  26 2.11  30 2.11  45 2.11  24 2.11
 125  0.200  0.100  0.407-  24 2.11  23 2.11   4 2.11  27 2.11  25 2.11
 126  0.300  0.000  0.407-  23 2.11  24 2.11  40 2.11  43 2.11  26 2.11
 127  0.200  0.200  0.503-  29 2.11  30 2.11  10 2.11  25 2.11  27 2.11
 128  0.300  0.300  0.503-  29 2.11  30 2.11  34 2.11  49 2.11  28 2.11
 129  0.200  0.300  0.407-  27 2.11  28 2.11   8 2.11  31 2.11  29 2.11
 130  0.300  0.200  0.407-  27 2.11  28 2.11  24 2.11  47 2.11  30 2.11
 131  0.200  0.400  0.503-  34 2.11  29 2.11  33 2.11  14 2.11  31 2.11
 132  0.300  0.500  0.503-  33 2.11  34 2.11  38 2.11  53 2.11  32 2.11
 133  0.200  0.500  0.407-  32 2.11  31 2.11  12 2.11  35 2.11  33 2.11
 134  0.300  0.400  0.407-  31 2.11  28 2.11  32 2.11  51 2.11  34 2.11
 135  0.200  0.600  0.503-  38 2.11  33 2.11  37 2.11  18 2.11  35 2.11
 136  0.300  0.700  0.503-  37 2.11  42 2.11  38 2.11  57 2.11  36 2.11
 137  0.200  0.700  0.407-  36 2.11  39 2.11  16 2.11  35 2.11  37 2.11
 138  0.300  0.600  0.407-  35 2.11  32 2.11  36 2.11  55 2.11  38 2.11
 139  0.200  0.800  0.503-  37 2.11  42 2.11  41 2.11  22 2.11  39 2.11
 140  0.300  0.900  0.503-  41 2.11  26 2.11  42 2.11  61 2.11  40 2.11
 141  0.200  0.900  0.407-  40 2.11  23 2.11  39 2.11  20 2.11  41 2.11
 142  0.300  0.800  0.407-  36 2.11  39 2.11  40 2.11  59 2.11  42 2.11
 143  0.400  0.000  0.503-  26 2.11  45 2.11  46 2.11  61 2.11  43 2.11
 144  0.500  0.100  0.503-  45 2.11  46 2.11  50 2.11  65 2.11  44 2.11
 145  0.400  0.100  0.407-  24 2.11  43 2.11  44 2.11  47 2.11  45 2.11
 146  0.500  0.000  0.407-  43 2.11  44 2.11  60 2.11  63 2.11  46 2.11
 147  0.400  0.200  0.503-  49 2.11  45 2.11  30 2.11  50 2.11  47 2.11
 148  0.500  0.300  0.503-  50 2.11  49 2.11  54 2.11  69 2.11  48 2.11
 149  0.400  0.300  0.407-  47 2.11  28 2.11  48 2.11  51 2.11  49 2.11
 150  0.500  0.200  0.407-  48 2.11  47 2.11  44 2.11  67 2.11  50 2.11
 151  0.400  0.400  0.503-  34 2.11  49 2.11  53 2.11  54 2.11  51 2.11
 152  0.500  0.500  0.503-  53 2.11  54 2.11  58 2.11  73 2.11  52 2.11
 153  0.400  0.500  0.407-  32 2.11  51 2.11  52 2.11  55 2.11  53 2.11
 154  0.500  0.400  0.407-  48 2.11  51 2.11  52 2.11  71 2.11  54 2.11
 155  0.400  0.600  0.503-  38 2.11  53 2.11  57 2.11  58 2.11  55 2.11
 156  0.500  0.700  0.503-  62 2.11  58 2.11  57 2.11  77 2.11  56 2.11
 157  0.400  0.700  0.407-  59 2.11  55 2.11  56 2.11  36 2.11  57 2.11
 158  0.500  0.600  0.407-  52 2.11  55 2.11  56 2.11  75 2.11  58 2.11
 159  0.400  0.800  0.503-  57 2.11  42 2.11  61 2.11  62 2.11  59 2.11
 160  0.500  0.900  0.503-  46 2.11  61 2.11  62 2.11  81 2.11  60 2.11
 161  0.400  0.900  0.407-  40 2.11  43 2.11  59 2.11  60 2.11  61 2.11
 162  0.500  0.800  0.407-  56 2.11  59 2.11  60 2.11  79 2.11  62 2.11
 163  0.600  0.000  0.503-  46 2.11  65 2.11  66 2.11  81 2.11  63 2.11
 164  0.700  0.100  0.503-  85 2.11  66 2.11  70 2.11  65 2.11  64 2.11
 165  0.600  0.100  0.407-  44 2.11  63 2.11  64 2.11  67 2.11  65 2.11
 166  0.700  0.000  0.407-  83 2.11  64 2.11  80 2.11  63 2.11  66 2.11
 167  0.600  0.200  0.503-  69 2.11  65 2.11  50 2.11  70 2.11  67 2.11
 168  0.700  0.300  0.503-  70 2.11  89 2.11  74 2.11  69 2.11  68 2.11
 169  0.600  0.300  0.407-  67 2.11  48 2.11  68 2.11  71 2.11  69 2.11
 170  0.700  0.200  0.407-  68 2.11  87 2.11  64 2.11  67 2.11  70 2.11
 171  0.600  0.400  0.503-  54 2.11  69 2.11  73 2.11  74 2.11  71 2.11
 172  0.700  0.500  0.503-  93 2.11  74 2.11  78 2.11  73 2.11  72 2.11
 173  0.600  0.500  0.407-  52 2.11  71 2.11  72 2.11  75 2.11  73 2.11
 174  0.700  0.400  0.407-  91 2.11  71 2.11  72 2.11  68 2.11  74 2.11
 175  0.600  0.600  0.503-  58 2.11  73 2.11  77 2.11  78 2.11  75 2.11
 176  0.700  0.700  0.503-  82 2.11  97 2.11  77 2.11  78 2.11  76 2.11
 177  0.600  0.700  0.407-  79 2.11  75 2.11  76 2.11  56 2.11  77 2.11
 178  0.700  0.600  0.407-  95 2.11  75 2.11  76 2.11  72 2.11  78 2.11
 179  0.600  0.800  0.503-  77 2.11  62 2.11  81 2.11  82 2.11  79 2.11
 180  0.700  0.900  0.503- 101 2.11  81 2.11  82 2.11  66 2.11  80 2.11
 181  0.600  0.900  0.407-  60 2.11  63 2.11  79 2.11  80 2.11  81 2.11
 182  0.700  0.800  0.407-  76 2.11  99 2.11  80 2.11  79 2.11  82 2.11
 183  0.800  0.000  0.503-  66 2.11  85 2.11  86 2.11 101 2.11  83 2.11
 184  0.900  0.100  0.503-   5 2.11  85 2.11  86 2.11  90 2.11  84 2.11
 185  0.800  0.100  0.407-  64 2.11  83 2.11  84 2.11  87 2.11  85 2.11
 186  0.900  0.000  0.407-   3 2.11  83 2.11  84 2.11 100 2.11  86 2.11
 187  0.800  0.200  0.503-  70 2.11  89 2.11  85 2.11  90 2.11  87 2.11
 188  0.900  0.300  0.503-  90 2.11  89 2.11   9 2.11  94 2.11  88 2.11
 189  0.800  0.300  0.407-  68 2.11  87 2.11  88 2.11  91 2.11  89 2.11
 190  0.900  0.200  0.407-  88 2.11  84 2.11  87 2.11   7 2.11  90 2.11
 191  0.800  0.400  0.503-  74 2.11  89 2.11  93 2.11  94 2.11  91 2.11
 192  0.900  0.500  0.503-  13 2.11  93 2.11  94 2.11  98 2.11  92 2.11
 193  0.800  0.500  0.407-  72 2.11  91 2.11  92 2.11  95 2.11  93 2.11
 194  0.900  0.400  0.407-  11 2.11  88 2.11  91 2.11  92 2.11  94 2.11
 195  0.800  0.600  0.503-  78 2.11  93 2.11  97 2.11  98 2.11  95 2.11
 196  0.900  0.700  0.503- 102 2.11  97 2.11  98 2.11  17 2.11  96 2.11
 197  0.800  0.700  0.407-  76 2.11  99 2.11  96 2.11  95 2.11  97 2.11
 198  0.900  0.600  0.407-  15 2.11  92 2.11  95 2.11  96 2.11  98 2.11
 199  0.800  0.800  0.503-  82 2.11  97 2.11 101 2.11 102 2.11  99 2.11
 200  0.900  0.900  0.503-  21 2.11  86 2.11 101 2.11 102 2.11 100 2.11
 201  0.800  0.900  0.407-  80 2.11  83 2.11  99 2.11 100 2.11 101 2.11
 202  0.900  0.800  0.407-  96 2.11  19 2.11  99 2.11 100 2.11 102 2.11

  LATTYP: Found a simple tetragonal cell.
 ALAT       =    21.1388521970
 C/A-ratio  =     1.0461251639
  
  Lattice vectors:
  
 A1 = (  21.1388521970,   0.0000000000,   0.0000000000)
 A2 = (   0.0000000000,  21.1388521970,   0.0000000000)
 A3 = (   0.0000000000,   0.0000000000,  22.1138852197)


Analysis of symmetry for initial positions (statically):
=====================================================================
 Subroutine PRICEL returns:
 Original cell was already a primitive cell.
 

 Routine SETGRP: Setting up the symmetry group for a 
 simple tetragonal supercell.


 Subroutine GETGRP returns: Found  4 space group operations
 (whereof  2 operations were pure point group operations)
 out of a pool of 16 trial point group operations.


The static configuration has the point symmetry C_1h.
 The point group associated with its full space group is C_2v.


Analysis of symmetry for dynamics (positions and initial velocities):
=====================================================================
 Subroutine PRICEL returns:
 Original cell was already a primitive cell.
 

 Routine SETGRP: Setting up the symmetry group for a 
 simple tetragonal supercell.


 Subroutine GETGRP returns: Found  4 space group operations
 (whereof  2 operations were pure point group operations)
 out of a pool of 16 trial point group operations.


The dynamic configuration has the point symmetry C_1h.
 The point group associated with its full space group is C_2v.


 Subroutine INISYM returns: Found  4 space group operations
 (whereof  2 operations are pure point group operations),
 and found     1 'primitive' translations


----------------------------------------------------------------------------------------

                                     Primitive cell                                     

  volume of cell :    9881.6133

  direct lattice vectors                    reciprocal lattice vectors
    21.138852197  0.000000000  0.000000000     0.047306258  0.000000000  0.000000000
     0.000000000 21.138852197  0.000000000     0.000000000  0.047306258  0.000000000
     0.000000000  0.000000000 22.113885220     0.000000000  0.000000000  0.045220457

  length of vectors
    21.138852197 21.138852197 22.113885220     0.047306258  0.047306258  0.045220457

  position of ions in fractional coordinates (direct lattice)
     0.654285265  0.500000000  0.605295840
     0.545714664  0.500000000  0.605295840
     0.000000000  0.000000000  0.406984115
     0.100000000  0.100000000  0.406984115
     0.000000000  0.100000000  0.502574971
     0.100000000  0.000000000  0.502574971
     0.000000000  0.200000000  0.406984115
     0.100000000  0.300000000  0.406984115
     0.000000000  0.300000000  0.502574971
     0.100000000  0.200000000  0.502574971
     0.000000000  0.400000000  0.406984115
     0.100000000  0.500000000  0.406984115
     0.000000000  0.500000000  0.502574971
     0.100000000  0.400000000  0.502574971
     0.000000000  0.600000000  0.406984115
     0.100000000  0.700000000  0.406984115
     0.000000000  0.700000000  0.502574971
     0.100000000  0.600000000  0.502574971
     0.000000000  0.800000000  0.406984115
     0.100000000  0.900000000  0.406984115
     0.000000000  0.900000000  0.502574971
     0.100000000  0.800000000  0.502574971
     0.200000000  0.000000000  0.406984115
     0.300000000  0.100000000  0.406984115
     0.200000000  0.100000000  0.502574971
     0.300000000  0.000000000  0.502574971
     0.200000000  0.200000000  0.406984115
     0.300000000  0.300000000  0.406984115
     0.200000000  0.300000000  0.502574971
     0.300000000  0.200000000  0.502574971
     0.200000000  0.400000000  0.406984115
     0.300000000  0.500000000  0.406984115
     0.200000000  0.500000000  0.502574971
     0.300000000  0.400000000  0.502574971
     0.200000000  0.600000000  0.406984115
     0.300000000  0.700000000  0.406984115
     0.200000000  0.700000000  0.502574971
     0.300000000  0.600000000  0.502574971
     0.200000000  0.800000000  0.406984115
     0.300000000  0.900000000  0.406984115
     0.200000000  0.900000000  0.502574971
     0.300000000  0.800000000  0.502574971
     0.400000000  0.000000000  0.406984115
     0.500000000  0.100000000  0.406984115
     0.400000000  0.100000000  0.502574971
     0.500000000  0.000000000  0.502574971
     0.400000000  0.200000000  0.406984115
     0.500000000  0.300000000  0.406984115
     0.400000000  0.300000000  0.502574971
     0.500000000  0.200000000  0.502574971
     0.400000000  0.400000000  0.406984115
     0.500000000  0.500000000  0.406984115
     0.400000000  0.500000000  0.502574971
     0.500000000  0.400000000  0.502574971
     0.400000000  0.600000000  0.406984115
     0.500000000  0.700000000  0.406984115
     0.400000000  0.700000000  0.502574971
     0.500000000  0.600000000  0.502574971
     0.400000000  0.800000000  0.406984115
     0.500000000  0.900000000  0.406984115
     0.400000000  0.900000000  0.502574971
     0.500000000  0.800000000  0.502574971
     0.600000000  0.000000000  0.406984115
     0.700000000  0.100000000  0.406984115
     0.600000000  0.100000000  0.502574971
     0.700000000  0.000000000  0.502574971
     0.600000000  0.200000000  0.406984115
     0.700000000  0.300000000  0.406984115
     0.600000000  0.300000000  0.502574971
     0.700000000  0.200000000  0.502574971
     0.600000000  0.400000000  0.406984115
     0.700000000  0.500000000  0.406984115
     0.600000000  0.500000000  0.502574971
     0.700000000  0.400000000  0.502574971
     0.600000000  0.600000000  0.406984115
     0.700000000  0.700000000  0.406984115
     0.600000000  0.700000000  0.502574971
     0.700000000  0.600000000  0.502574971
     0.600000000  0.800000000  0.406984115
     0.700000000  0.900000000  0.406984115
     0.600000000  0.900000000  0.502574971
     0.700000000  0.800000000  0.502574971
     0.800000000  0.000000000  0.406984115
     0.900000000  0.100000000  0.406984115
     0.800000000  0.100000000  0.502574971
     0.900000000  0.000000000  0.502574971
     0.800000000  0.200000000  0.406984115
     0.900000000  0.300000000  0.406984115
     0.800000000  0.300000000  0.502574971
     0.900000000  0.200000000  0.502574971
     0.800000000  0.400000000  0.406984115
     0.900000000  0.500000000  0.406984115
     0.800000000  0.500000000  0.502574971
     0.900000000  0.400000000  0.502574971
     0.800000000  0.600000000  0.406984115
     0.900000000  0.700000000  0.406984115
     0.800000000  0.700000000  0.502574971
     0.900000000  0.600000000  0.502574971
     0.800000000  0.800000000  0.406984115
     0.900000000  0.900000000  0.406984115
     0.800000000  0.900000000  0.502574971
     0.900000000  0.800000000  0.502574971
     0.000000000  0.000000000  0.502574971
     0.100000000  0.100000000  0.502574971
     0.000000000  0.100000000  0.406984115
     0.100000000  0.000000000  0.406984115
     0.000000000  0.200000000  0.502574971
     0.100000000  0.300000000  0.502574971
     0.000000000  0.300000000  0.406984115
     0.100000000  0.200000000  0.406984115
     0.000000000  0.400000000  0.502574971
     0.100000000  0.500000000  0.502574971
     0.000000000  0.500000000  0.406984115
     0.100000000  0.400000000  0.406984115
     0.000000000  0.600000000  0.502574971
     0.100000000  0.700000000  0.502574971
     0.000000000  0.700000000  0.406984115
     0.100000000  0.600000000  0.406984115
     0.000000000  0.800000000  0.502574971
     0.100000000  0.900000000  0.502574971
     0.000000000  0.900000000  0.406984115
     0.100000000  0.800000000  0.406984115
     0.200000000  0.000000000  0.502574971
     0.300000000  0.100000000  0.502574971
     0.200000000  0.100000000  0.406984115
     0.300000000  0.000000000  0.406984115
     0.200000000  0.200000000  0.502574971
     0.300000000  0.300000000  0.502574971
     0.200000000  0.300000000  0.406984115
     0.300000000  0.200000000  0.406984115
     0.200000000  0.400000000  0.502574971
     0.300000000  0.500000000  0.502574971
     0.200000000  0.500000000  0.406984115
     0.300000000  0.400000000  0.406984115
     0.200000000  0.600000000  0.502574971
     0.300000000  0.700000000  0.502574971
     0.200000000  0.700000000  0.406984115
     0.300000000  0.600000000  0.406984115
     0.200000000  0.800000000  0.502574971
     0.300000000  0.900000000  0.502574971
     0.200000000  0.900000000  0.406984115
     0.300000000  0.800000000  0.406984115
     0.400000000  0.000000000  0.502574971
     0.500000000  0.100000000  0.502574971
     0.400000000  0.100000000  0.406984115
     0.500000000  0.000000000  0.406984115
     0.400000000  0.200000000  0.502574971
     0.500000000  0.300000000  0.502574971
     0.400000000  0.300000000  0.406984115
     0.500000000  0.200000000  0.406984115
     0.400000000  0.400000000  0.502574971
     0.500000000  0.500000000  0.502574971
     0.400000000  0.500000000  0.406984115
     0.500000000  0.400000000  0.406984115
     0.400000000  0.600000000  0.502574971
     0.500000000  0.700000000  0.502574971
     0.400000000  0.700000000  0.406984115
     0.500000000  0.600000000  0.406984115
     0.400000000  0.800000000  0.502574971
     0.500000000  0.900000000  0.502574971
     0.400000000  0.900000000  0.406984115
     0.500000000  0.800000000  0.406984115
     0.600000000  0.000000000  0.502574971
     0.700000000  0.100000000  0.502574971
     0.600000000  0.100000000  0.406984115
     0.700000000  0.000000000  0.406984115
     0.600000000  0.200000000  0.502574971
     0.700000000  0.300000000  0.502574971
     0.600000000  0.300000000  0.406984115
     0.700000000  0.200000000  0.406984115
     0.600000000  0.400000000  0.502574971
     0.700000000  0.500000000  0.502574971
     0.600000000  0.500000000  0.406984115
     0.700000000  0.400000000  0.406984115
     0.600000000  0.600000000  0.502574971
     0.700000000  0.700000000  0.502574971
     0.600000000  0.700000000  0.406984115
     0.700000000  0.600000000  0.406984115
     0.600000000  0.800000000  0.502574971
     0.700000000  0.900000000  0.502574971
     0.600000000  0.900000000  0.406984115
     0.700000000  0.800000000  0.406984115
     0.800000000  0.000000000  0.502574971
     0.900000000  0.100000000  0.502574971
     0.800000000  0.100000000  0.406984115
     0.900000000  0.000000000  0.406984115
     0.800000000  0.200000000  0.502574971
     0.900000000  0.300000000  0.502574971
     0.800000000  0.300000000  0.406984115
     0.900000000  0.200000000  0.406984115
     0.800000000  0.400000000  0.502574971
     0.900000000  0.500000000  0.502574971
     0.800000000  0.500000000  0.406984115
     0.900000000  0.400000000  0.406984115
     0.800000000  0.600000000  0.502574971
     0.900000000  0.700000000  0.502574971
     0.800000000  0.700000000  0.406984115
     0.900000000  0.600000000  0.406984115
     0.800000000  0.800000000  0.502574971
     0.900000000  0.900000000  0.502574971
     0.800000000  0.900000000  0.406984115
     0.900000000  0.800000000  0.406984115

  ion indices of the primitive-cell ions
   primitive index   ion index
                 1           1
                 2           2
                 3           3
                 4           4
                 5           5
                 6           6
                 7           7
                 8           8
                 9           9
                10          10
                11          11
                12          12
                13          13
                14          14
                15          15
                16          16
                17          17
                18          18
                19          19
                20          20
                21          21
                22          22
                23          23
                24          24
                25          25
                26          26
                27          27
                28          28
                29          29
                30          30
                31          31
                32          32
                33          33
                34          34
                35          35
                36          36
                37          37
                38          38
                39          39
                40          40
                41          41
                42          42
                43          43
                44          44
                45          45
                46          46
                47          47
                48          48
                49          49
                50          50
                51          51
                52          52
                53          53
                54          54
                55          55
                56          56
                57          57
                58          58
                59          59
                60          60
                61          61
                62          62
                63          63
                64          64
                65          65
                66          66
                67          67
                68          68
                69          69
                70          70
                71          71
                72          72
                73          73
                74          74
                75          75
                76          76
                77          77
                78          78
                79          79
                80          80
                81          81
                82          82
                83          83
                84          84
                85          85
                86          86
                87          87
                88          88
                89          89
                90          90
                91          91
                92          92
                93          93
                94          94
                95          95
                96          96
                97          97
                98          98
                99          99
               100         100
               101         101
               102         102
               103         103
               104         104
               105         105
               106         106
               107         107
               108         108
               109         109
               110         110
               111         111
               112         112
               113         113
               114         114
               115         115
               116         116
               117         117
               118         118
               119         119
               120         120
               121         121
               122         122
               123         123
               124         124
               125         125
               126         126
               127         127
               128         128
               129         129
               130         130
               131         131
               132         132
               133         133
               134         134
               135         135
               136         136
               137         137
               138         138
               139         139
               140         140
               141         141
               142         142
               143         143
               144         144
               145         145
               146         146
               147         147
               148         148
               149         149
               150         150
               151         151
               152         152
               153         153
               154         154
               155         155
               156         156
               157         157
               158         158
               159         159
               160         160
               161         161
               162         162
               163         163
               164         164
               165         165
               166         166
               167         167
               168         168
               169         169
               170         170
               171         171
               172         172
               173         173
               174         174
               175         175
               176         176
               177         177
               178         178
               179         179
               180         180
               181         181
               182         182
               183         183
               184         184
               185         185
               186         186
               187         187
               188         188
               189         189
               190         190
               191         191
               192         192
               193         193
               194         194
               195         195
               196         196
               197         197
               198         198
               199         199
               200         200
               201         201
               202         202

----------------------------------------------------------------------------------------



 KPOINTS: KPOINTS created by Atomic Simulation Env

Automatic generation of k-mesh.
 Grid dimensions read from file:
 generate k-points for:    1    1    1

 Generating k-lattice:

  Cartesian coordinates                     Fractional coordinates (reciprocal lattice)
     0.047306258  0.000000000  0.000000000     1.000000000  0.000000000  0.000000000
     0.000000000  0.047306258  0.000000000     0.000000000  1.000000000  0.000000000
     0.000000000  0.000000000  0.045220457     0.000000000  0.000000000  1.000000000

  Length of vectors
     0.047306258  0.047306258  0.045220457

  Shift w.r.t. Gamma in fractional coordinates (k-lattice)
     0.000000000  0.000000000  0.000000000

 
 Subroutine IBZKPT returns following result:
 ===========================================
 
 Found      1 irreducible k-points:
 
 Following reciprocal coordinates:
            Coordinates               Weight
  0.000000  0.000000  0.000000      1.000000
 
 Following cartesian coordinates:
            Coordinates               Weight
  0.000000  0.000000  0.000000      1.000000
 


--------------------------------------------------------------------------------------------------------




 Dimension of arrays:
   k-points           NKPTS =      1   k-points in BZ     NKDIM =      1   number of bands    NBANDS=    896
   number of dos      NEDOS =    301   number of ions     NIONS =    202
   non local maximal  LDIM  =      6   non local SUM 2l+1 LMDIM =     18
   total plane-waves  NPLWV = ******
   max r-space proj   IRMAX =   6628   max aug-charges    IRDMAX=  12805
   dimension x,y,z NGX =   160 NGY =  160 NGZ =  168
   dimension x,y,z NGXF=   320 NGYF=  320 NGZF=  336
   support grid    NGXF=   320 NGYF=  320 NGZF=  336
   ions per type =               2 100 100
   NGX,Y,Z   is equivalent  to a cutoff of  12.58, 12.58, 12.63 a.u.
   NGXF,Y,Z  is equivalent  to a cutoff of  25.17, 25.17, 25.26 a.u.

 SYSTEM =  MgO-rocksalt                            
 POSCAR =  Cu Mg  O                                

 Startparameter for this run:
   NWRITE =      2    write-flag & timer
   PREC   = accura    normal or accurate (medium, high low for compatibility)
   ISTART =      0    job   : 0-new  1-cont  2-samecut
   ICHARG =      2    charge: 1-file 2-atom 10-const
   ISPIN  =      1    spin polarized calculation?
   LNONCOLLINEAR =      F non collinear calculations
   LSORBIT =      F    spin-orbit coupling
   INIWAV =      1    electr: 0-lowe 1-rand  2-diag
   LASPH  =      T    aspherical Exc in radial PAW
 Electronic Relaxation 1
   ENCUT  =  520.0 eV  38.22 Ry    6.18 a.u.  39.30 39.30 41.12*2*pi/ulx,y,z
   ENINI  =  520.0     initial cutoff
   ENAUG  =  758.8 eV  augmentation charge cutoff
   NELM   =    200;   NELMIN=  8; NELMDL= -5     # of ELM steps 
   EDIFF  = 0.1E-05   stopping-criterion for ELM
   LREAL  =      T    real-space projection
   NLSPLINE    = F    spline interpolate recip. space projectors
   LCOMPAT=      F    compatible to vasp.4.4
   GGA_COMPAT  = T    GGA compatible to vasp.4.4-vasp.4.6
   LMAXPAW     = -100 max onsite density
   LMAXMIX     =    2 max onsite mixed and CHGCAR
   VOSKOWN=      0    Vosko Wilk Nusair interpolation
   ROPT   =   -0.00025  -0.00025  -0.00025
 Ionic relaxation
   EDIFFG = 0.1E-04   stopping-criterion for IOM
   NSW    =      0    number of steps for IOM
   NBLOCK =      1;   KBLOCK =      1    inner block; outer block 
   IBRION =     -1    ionic relax: 0-MD 1-quasi-New 2-CG
   NFREE  =      0    steps in history (QN), initial steepest desc. (CG)
   ISIF   =      2    stress and relaxation
   IWAVPR =     10    prediction:  0-non 1-charg 2-wave 3-comb
   ISYM   =      2    0-nonsym 1-usesym 2-fastsym
   LCORR  =      T    Harris-Foulkes like correction to forces

   POTIM  = 0.5000    time-step for ionic-motion
   TEIN   =    0.0    initial temperature
   TEBEG  =    0.0;   TEEND  =   0.0 temperature during run
   SMASS  =  -3.00    Nose mass-parameter (am)
   estimated Nose-frequenzy (Omega)   =  0.10E-29 period in steps = 0.13E+47 mass=  -0.102E-25a.u.
   SCALEE = 1.0000    scale energy and forces
   NPACO  =    256;   APACO  = 10.0  distance and # of slots for P.C.
   PSTRESS=    0.0 pullay stress

  Mass of Ions in am
   POMASS =  63.55 24.30 16.00
  Ionic Valenz
   ZVAL   =  11.00  8.00  6.00
  Atomic Wigner-Seitz radii
   RWIGS  =  -1.00 -1.00 -1.00
  virtual crystal weights 
   VCA    =   1.00  1.00  1.00
   NELECT =    1422.0000    total number of electrons
   NUPDOWN=      -1.0000    fix difference up-down

 DOS related values:
   EMIN   =  10.00;   EMAX   =-10.00  energy-range for DOS
   EFERMI =   0.00
   ISMEAR =     0;   SIGMA  =   0.05  broadening in eV -4-tet -1-fermi 0-gaus

 Electronic relaxation 2 (details)
   IALGO  =     58    algorithm
   LDIAG  =      T    sub-space diagonalisation (order eigenvalues)
   LSUBROT=      F    optimize rotation matrix (better conditioning)
   TURBO    =      0    0=normal 1=particle mesh
   IRESTART =      0    0=no restart 2=restart with 2 vectors
   NREBOOT  =      0    no. of reboots
   NMIN     =      0    reboot dimension
   EREF     =   0.00    reference energy to select bands
   IMIX   =      4    mixing-type and parameters
     AMIX     =   0.40;   BMIX     =  1.00
     AMIX_MAG =   1.60;   BMIX_MAG =  1.00
     AMIN     =   0.10
     WC   =   100.;   INIMIX=   1;  MIXPRE=   1;  MAXMIX= -45

 Intra band minimization:
   WEIMIN = 0.0000     energy-eigenvalue tresh-hold
   EBREAK =  0.28E-09  absolut break condition
   DEPER  =   0.30     relativ break condition  

   TIME   =   0.40     timestep for ELM

  volume/ion in A,a.u.               =      48.92       330.12
  Fermi-wavevector in a.u.,A,eV,Ry     =   0.857891  1.621179 10.013573  0.735977
  Thomas-Fermi vector in A             =   1.975013

 Write flags
   LWAVE        =      F    write WAVECAR
   LDOWNSAMPLE  =      F    k-point downsampling of WAVECAR
   LCHARG       =      F    write CHGCAR
   LVTOT        =      F    write LOCPOT, total local potential
   LVHAR        =      F    write LOCPOT, Hartree potential only
   LELF         =      F    write electronic localiz. function (ELF)
   LORBIT       =      0    0 simple, 1 ext, 2 COOP (PROOUT), +10 PAW based schemes


 Dipole corrections
   LMONO  =      F    monopole corrections only (constant potential shift)
   LDIPOL =      T    correct potential (dipole corrections)
   IDIPOL =      3    1-x, 2-y, 3-z, 4-all directions 
   EPSILON=  1.0000000 bulk dielectric constant

 Exchange correlation treatment:
   GGA     =    --    GGA type
   LEXCH   =     8    internal setting for exchange type
   LIBXC   =     F    Libxc                    
   VOSKOWN =     0    Vosko Wilk Nusair interpolation
   LHFCALC =     F    Hartree Fock is set to
   LHFONE  =     F    Hartree Fock one center treatment
   AEXX    =    0.0000 exact exchange contribution

 Linear response parameters
   LEPSILON=     F    determine dielectric tensor
   LRPA    =     F    only Hartree local field effects (RPA)
   LNABLA  =     F    use nabla operator in PAW spheres
   LVEL    =     F    velocity operator in full k-point grid
   CSHIFT  =0.1000    complex shift for real part using Kramers Kronig
   OMEGAMAX=  -1.0    maximum frequency
   DEG_THRESHOLD= 0.2000000E-02 threshold for treating states as degnerate
   RTIME   =   -0.100 relaxation time in fs
  (WPLASMAI=    0.000 imaginary part of plasma frequency in eV, 0.658/RTIME)
   DFIELD  = 0.0000000 0.0000000 0.0000000 field for delta impulse in time

  Optional k-point grid parameters
   LKPOINTS_OPT  =     F    use optional k-point grid
   KPOINTS_OPT_MODE=     1    mode for optional k-point grid

 Orbital magnetization related:
   ORBITALMAG=     F  switch on orbital magnetization
   LCHIMAG   =     F  perturbation theory with respect to B field
   DQ        =  0.001000  dq finite difference perturbation B field
   LLRAUG    =     F  two centre corrections for induced B field



--------------------------------------------------------------------------------------------------------


 Static calculation
 charge density and potential will be updated during run
 non-spin polarized calculation
 Conjugate gradient for all bands (Freysoldt, et al. PRB 79, 241103 (2009))
 preconditioned conjugated gradient                                        
 perform sub-space diagonalisation
    before iterative eigenvector-optimisation
 modified Broyden-mixing scheme, WC =      100.0
 initial mixing is a Kerker type mixing with AMIX =  0.4000 and BMIX =      1.0000
 Hartree-type preconditioning will be used
 using additional bands          185
 real space projection scheme for non local part
 use partial core corrections
 no Harris-corrections to forces 
 use gradient corrections 
 use of overlap-Matrix (Vanderbilt PP)
 Gauss-broadening in eV      SIGMA  =   0.05


--------------------------------------------------------------------------------------------------------


  energy-cutoff  :      520.00
  volume of cell :     9881.61
      direct lattice vectors                 reciprocal lattice vectors
    21.138852197  0.000000000  0.000000000     0.047306258  0.000000000  0.000000000
     0.000000000 21.138852197  0.000000000     0.000000000  0.047306258  0.000000000
     0.000000000  0.000000000 22.113885220     0.000000000  0.000000000  0.045220457

  length of vectors
    21.138852197 21.138852197 22.113885220     0.047306258  0.047306258  0.045220457



 k-points in units of 2pi/SCALE and weight: KPOINTS created by Atomic Simulation Env
   0.00000000  0.00000000  0.00000000       1.000

 k-points in reciprocal lattice and weights: KPOINTS created by Atomic Simulation Env
   0.00000000  0.00000000  0.00000000       1.000

 position of ions in fractional coordinates (direct lattice) 
   0.65428526  0.50000000  0.60529584
   0.54571466  0.50000000  0.60529584
   0.00000000  0.00000000  0.40698411
   0.10000000  0.10000000  0.40698411
   0.00000000  0.10000000  0.50257497
   0.10000000  0.00000000  0.50257497
   0.00000000  0.20000000  0.40698411
   0.10000000  0.30000000  0.40698411
   0.00000000  0.30000000  0.50257497
   0.10000000  0.20000000  0.50257497
   0.00000000  0.40000000  0.40698411
   0.10000000  0.50000000  0.40698411
   0.00000000  0.50000000  0.50257497
   0.10000000  0.40000000  0.50257497
   0.00000000  0.60000000  0.40698411
   0.10000000  0.70000000  0.40698411
   0.00000000  0.70000000  0.50257497
   0.10000000  0.60000000  0.50257497
   0.00000000  0.80000000  0.40698411
   0.10000000  0.90000000  0.40698411
   0.00000000  0.90000000  0.50257497
   0.10000000  0.80000000  0.50257497
   0.20000000  0.00000000  0.40698411
   0.30000000  0.10000000  0.40698411
   0.20000000  0.10000000  0.50257497
   0.30000000  0.00000000  0.50257497
   0.20000000  0.20000000  0.40698411
   0.30000000  0.30000000  0.40698411
   0.20000000  0.30000000  0.50257497
   0.30000000  0.20000000  0.50257497
   0.20000000  0.40000000  0.40698411
   0.30000000  0.50000000  0.40698411
   0.20000000  0.50000000  0.50257497
   0.30000000  0.40000000  0.50257497
   0.20000000  0.60000000  0.40698411
   0.30000000  0.70000000  0.40698411
   0.20000000  0.70000000  0.50257497
   0.30000000  0.60000000  0.50257497
   0.20000000  0.80000000  0.40698411
   0.30000000  0.90000000  0.40698411
   0.20000000  0.90000000  0.50257497
   0.30000000  0.80000000  0.50257497
   0.40000000  0.00000000  0.40698411
   0.50000000  0.10000000  0.40698411
   0.40000000  0.10000000  0.50257497
   0.50000000  0.00000000  0.50257497
   0.40000000  0.20000000  0.40698411
   0.50000000  0.30000000  0.40698411
   0.40000000  0.30000000  0.50257497
   0.50000000  0.20000000  0.50257497
   0.40000000  0.40000000  0.40698411
   0.50000000  0.50000000  0.40698411
   0.40000000  0.50000000  0.50257497
   0.50000000  0.40000000  0.50257497
   0.40000000  0.60000000  0.40698411
   0.50000000  0.70000000  0.40698411
   0.40000000  0.70000000  0.50257497
   0.50000000  0.60000000  0.50257497
   0.40000000  0.80000000  0.40698411
   0.50000000  0.90000000  0.40698411
   0.40000000  0.90000000  0.50257497
   0.50000000  0.80000000  0.50257497
   0.60000000  0.00000000  0.40698411
   0.70000000  0.10000000  0.40698411
   0.60000000  0.10000000  0.50257497
   0.70000000  0.00000000  0.50257497
   0.60000000  0.20000000  0.40698411
   0.70000000  0.30000000  0.40698411
   0.60000000  0.30000000  0.50257497
   0.70000000  0.20000000  0.50257497
   0.60000000  0.40000000  0.40698411
   0.70000000  0.50000000  0.40698411
   0.60000000  0.50000000  0.50257497
   0.70000000  0.40000000  0.50257497
   0.60000000  0.60000000  0.40698411
   0.70000000  0.70000000  0.40698411
   0.60000000  0.70000000  0.50257497
   0.70000000  0.60000000  0.50257497
   0.60000000  0.80000000  0.40698411
   0.70000000  0.90000000  0.40698411
   0.60000000  0.90000000  0.50257497
   0.70000000  0.80000000  0.50257497
   0.80000000  0.00000000  0.40698411
   0.90000000  0.10000000  0.40698411
   0.80000000  0.10000000  0.50257497
   0.90000000  0.00000000  0.50257497
   0.80000000  0.20000000  0.40698411
   0.90000000  0.30000000  0.40698411
   0.80000000  0.30000000  0.50257497
   0.90000000  0.20000000  0.50257497
   0.80000000  0.40000000  0.40698411
   0.90000000  0.50000000  0.40698411
   0.80000000  0.50000000  0.50257497
   0.90000000  0.40000000  0.50257497
   0.80000000  0.60000000  0.40698411
   0.90000000  0.70000000  0.40698411
   0.80000000  0.70000000  0.50257497
   0.90000000  0.60000000  0.50257497
   0.80000000  0.80000000  0.40698411
   0.90000000  0.90000000  0.40698411
   0.80000000  0.90000000  0.50257497
   0.90000000  0.80000000  0.50257497
   0.00000000  0.00000000  0.50257497
   0.10000000  0.10000000  0.50257497
   0.00000000  0.10000000  0.40698411
   0.10000000  0.00000000  0.40698411
   0.00000000  0.20000000  0.50257497
   0.10000000  0.30000000  0.50257497
   0.00000000  0.30000000  0.40698411
   0.10000000  0.20000000  0.40698411
   0.00000000  0.40000000  0.50257497
   0.10000000  0.50000000  0.50257497
   0.00000000  0.50000000  0.40698411
   0.10000000  0.40000000  0.40698411
   0.00000000  0.60000000  0.50257497
   0.10000000  0.70000000  0.50257497
   0.00000000  0.70000000  0.40698411
   0.10000000  0.60000000  0.40698411
   0.00000000  0.80000000  0.50257497
   0.10000000  0.90000000  0.50257497
   0.00000000  0.90000000  0.40698411
   0.10000000  0.80000000  0.40698411
   0.20000000  0.00000000  0.50257497
   0.30000000  0.10000000  0.50257497
   0.20000000  0.10000000  0.40698411
   0.30000000  0.00000000  0.40698411
   0.20000000  0.20000000  0.50257497
   0.30000000  0.30000000  0.50257497
   0.20000000  0.30000000  0.40698411
   0.30000000  0.20000000  0.40698411
   0.20000000  0.40000000  0.50257497
   0.30000000  0.50000000  0.50257497
   0.20000000  0.50000000  0.40698411
   0.30000000  0.40000000  0.40698411
   0.20000000  0.60000000  0.50257497
   0.30000000  0.70000000  0.50257497
   0.20000000  0.70000000  0.40698411
   0.30000000  0.60000000  0.40698411
   0.20000000  0.80000000  0.50257497
   0.30000000  0.90000000  0.50257497
   0.20000000  0.90000000  0.40698411
   0.30000000  0.80000000  0.40698411
   0.40000000  0.00000000  0.50257497
   0.50000000  0.10000000  0.50257497
   0.40000000  0.10000000  0.40698411
   0.50000000  0.00000000  0.40698411
   0.40000000  0.20000000  0.50257497
   0.50000000  0.30000000  0.50257497
   0.40000000  0.30000000  0.40698411
   0.50000000  0.20000000  0.40698411
   0.40000000  0.40000000  0.50257497
   0.50000000  0.50000000  0.50257497
   0.40000000  0.50000000  0.40698411
   0.50000000  0.40000000  0.40698411
   0.40000000  0.60000000  0.50257497
   0.50000000  0.70000000  0.50257497
   0.40000000  0.70000000  0.40698411
   0.50000000  0.60000000  0.40698411
   0.40000000  0.80000000  0.50257497
   0.50000000  0.90000000  0.50257497
   0.40000000  0.90000000  0.40698411
   0.50000000  0.80000000  0.40698411
   0.60000000  0.00000000  0.50257497
   0.70000000  0.10000000  0.50257497
   0.60000000  0.10000000  0.40698411
   0.70000000  0.00000000  0.40698411
   0.60000000  0.20000000  0.50257497
   0.70000000  0.30000000  0.50257497
   0.60000000  0.30000000  0.40698411
   0.70000000  0.20000000  0.40698411
   0.60000000  0.40000000  0.50257497
   0.70000000  0.50000000  0.50257497
   0.60000000  0.50000000  0.40698411
   0.70000000  0.40000000  0.40698411
   0.60000000  0.60000000  0.50257497
   0.70000000  0.70000000  0.50257497
   0.60000000  0.70000000  0.40698411
   0.70000000  0.60000000  0.40698411
   0.60000000  0.80000000  0.50257497
   0.70000000  0.90000000  0.50257497
   0.60000000  0.90000000  0.40698411
   0.70000000  0.80000000  0.40698411
   0.80000000  0.00000000  0.50257497
   0.90000000  0.10000000  0.50257497
   0.80000000  0.10000000  0.40698411
   0.90000000  0.00000000  0.40698411
   0.80000000  0.20000000  0.50257497
   0.90000000  0.30000000  0.50257497
   0.80000000  0.30000000  0.40698411
   0.90000000  0.20000000  0.40698411
   0.80000000  0.40000000  0.50257497
   0.90000000  0.50000000  0.50257497
   0.80000000  0.50000000  0.40698411
   0.90000000  0.40000000  0.40698411
   0.80000000  0.60000000  0.50257497
   0.90000000  0.70000000  0.50257497
   0.80000000  0.70000000  0.40698411
   0.90000000  0.60000000  0.40698411
   0.80000000  0.80000000  0.50257497
   0.90000000  0.90000000  0.50257497
   0.80000000  0.90000000  0.40698411
   0.90000000  0.80000000  0.40698411

 position of ions in cartesian coordinates  (Angst):
  13.83083950 10.56942610 13.38544272
  11.53578163 10.56942610 13.38544272
   0.00000000  0.00000000  9.00000000
   2.11388522  2.11388522  9.00000000
   0.00000000  2.11388522 11.11388522
   2.11388522  0.00000000 11.11388522
   0.00000000  4.22777044  9.00000000
   2.11388522  6.34165566  9.00000000
   0.00000000  6.34165566 11.11388522
   2.11388522  4.22777044 11.11388522
   0.00000000  8.45554088  9.00000000
   2.11388522 10.56942610  9.00000000
   0.00000000 10.56942610 11.11388522
   2.11388522  8.45554088 11.11388522
   0.00000000 12.68331132  9.00000000
   2.11388522 14.79719654  9.00000000
   0.00000000 14.79719654 11.11388522
   2.11388522 12.68331132 11.11388522
   0.00000000 16.91108176  9.00000000
   2.11388522 19.02496698  9.00000000
   0.00000000 19.02496698 11.11388522
   2.11388522 16.91108176 11.11388522
   4.22777044  0.00000000  9.00000000
   6.34165566  2.11388522  9.00000000
   4.22777044  2.11388522 11.11388522
   6.34165566  0.00000000 11.11388522
   4.22777044  4.22777044  9.00000000
   6.34165566  6.34165566  9.00000000
   4.22777044  6.34165566 11.11388522
   6.34165566  4.22777044 11.11388522
   4.22777044  8.45554088  9.00000000
   6.34165566 10.56942610  9.00000000
   4.22777044 10.56942610 11.11388522
   6.34165566  8.45554088 11.11388522
   4.22777044 12.68331132  9.00000000
   6.34165566 14.79719654  9.00000000
   4.22777044 14.79719654 11.11388522
   6.34165566 12.68331132 11.11388522
   4.22777044 16.91108176  9.00000000
   6.34165566 19.02496698  9.00000000
   4.22777044 19.02496698 11.11388522
   6.34165566 16.91108176 11.11388522
   8.45554088  0.00000000  9.00000000
  10.56942610  2.11388522  9.00000000
   8.45554088  2.11388522 11.11388522
  10.56942610  0.00000000 11.11388522
   8.45554088  4.22777044  9.00000000
  10.56942610  6.34165566  9.00000000
   8.45554088  6.34165566 11.11388522
  10.56942610  4.22777044 11.11388522
   8.45554088  8.45554088  9.00000000
  10.56942610 10.56942610  9.00000000
   8.45554088 10.56942610 11.11388522
  10.56942610  8.45554088 11.11388522
   8.45554088 12.68331132  9.00000000
  10.56942610 14.79719654  9.00000000
   8.45554088 14.79719654 11.11388522
  10.56942610 12.68331132 11.11388522
   8.45554088 16.91108176  9.00000000
  10.56942610 19.02496698  9.00000000
   8.45554088 19.02496698 11.11388522
  10.56942610 16.91108176 11.11388522
  12.68331132  0.00000000  9.00000000
  14.79719654  2.11388522  9.00000000
  12.68331132  2.11388522 11.11388522
  14.79719654  0.00000000 11.11388522
  12.68331132  4.22777044  9.00000000
  14.79719654  6.34165566  9.00000000
  12.68331132  6.34165566 11.11388522
  14.79719654  4.22777044 11.11388522
  12.68331132  8.45554088  9.00000000
  14.79719654 10.56942610  9.00000000
  12.68331132 10.56942610 11.11388522
  14.79719654  8.45554088 11.11388522
  12.68331132 12.68331132  9.00000000
  14.79719654 14.79719654  9.00000000
  12.68331132 14.79719654 11.11388522
  14.79719654 12.68331132 11.11388522
  12.68331132 16.91108176  9.00000000
  14.79719654 19.02496698  9.00000000
  12.68331132 19.02496698 11.11388522
  14.79719654 16.91108176 11.11388522
  16.91108176  0.00000000  9.00000000
  19.02496698  2.11388522  9.00000000
  16.91108176  2.11388522 11.11388522
  19.02496698  0.00000000 11.11388522
  16.91108176  4.22777044  9.00000000
  19.02496698  6.34165566  9.00000000
  16.91108176  6.34165566 11.11388522
  19.02496698  4.22777044 11.11388522
  16.91108176  8.45554088  9.00000000
  19.02496698 10.56942610  9.00000000
  16.91108176 10.56942610 11.11388522
  19.02496698  8.45554088 11.11388522
  16.91108176 12.68331132  9.00000000
  19.02496698 14.79719654  9.00000000
  16.91108176 14.79719654 11.11388522
  19.02496698 12.68331132 11.11388522
  16.91108176 16.91108176  9.00000000
  19.02496698 19.02496698  9.00000000
  16.91108176 19.02496698 11.11388522
  19.02496698 16.91108176 11.11388522
   0.00000000  0.00000000 11.11388522
   2.11388522  2.11388522 11.11388522
   0.00000000  2.11388522  9.00000000
   2.11388522  0.00000000  9.00000000
   0.00000000  4.22777044 11.11388522
   2.11388522  6.34165566 11.11388522
   0.00000000  6.34165566  9.00000000
   2.11388522  4.22777044  9.00000000
   0.00000000  8.45554088 11.11388522
   2.11388522 10.56942610 11.11388522
   0.00000000 10.56942610  9.00000000
   2.11388522  8.45554088  9.00000000
   0.00000000 12.68331132 11.11388522
   2.11388522 14.79719654 11.11388522
   0.00000000 14.79719654  9.00000000
   2.11388522 12.68331132  9.00000000
   0.00000000 16.91108176 11.11388522
   2.11388522 19.02496698 11.11388522
   0.00000000 19.02496698  9.00000000
   2.11388522 16.91108176  9.00000000
   4.22777044  0.00000000 11.11388522
   6.34165566  2.11388522 11.11388522
   4.22777044  2.11388522  9.00000000
   6.34165566  0.00000000  9.00000000
   4.22777044  4.22777044 11.11388522
   6.34165566  6.34165566 11.11388522
   4.22777044  6.34165566  9.00000000
   6.34165566  4.22777044  9.00000000
   4.22777044  8.45554088 11.11388522
   6.34165566 10.56942610 11.11388522
   4.22777044 10.56942610  9.00000000
   6.34165566  8.45554088  9.00000000
   4.22777044 12.68331132 11.11388522
   6.34165566 14.79719654 11.11388522
   4.22777044 14.79719654  9.00000000
   6.34165566 12.68331132  9.00000000
   4.22777044 16.91108176 11.11388522
   6.34165566 19.02496698 11.11388522
   4.22777044 19.02496698  9.00000000
   6.34165566 16.91108176  9.00000000
   8.45554088  0.00000000 11.11388522
  10.56942610  2.11388522 11.11388522
   8.45554088  2.11388522  9.00000000
  10.56942610  0.00000000  9.00000000
   8.45554088  4.22777044 11.11388522
  10.56942610  6.34165566 11.11388522
   8.45554088  6.34165566  9.00000000
  10.56942610  4.22777044  9.00000000
   8.45554088  8.45554088 11.11388522
  10.56942610 10.56942610 11.11388522
   8.45554088 10.56942610  9.00000000
  10.56942610  8.45554088  9.00000000
   8.45554088 12.68331132 11.11388522
  10.56942610 14.79719654 11.11388522
   8.45554088 14.79719654  9.00000000
  10.56942610 12.68331132  9.00000000
   8.45554088 16.91108176 11.11388522
  10.56942610 19.02496698 11.11388522
   8.45554088 19.02496698  9.00000000
  10.56942610 16.91108176  9.00000000
  12.68331132  0.00000000 11.11388522
  14.79719654  2.11388522 11.11388522
  12.68331132  2.11388522  9.00000000
  14.79719654  0.00000000  9.00000000
  12.68331132  4.22777044 11.11388522
  14.79719654  6.34165566 11.11388522
  12.68331132  6.34165566  9.00000000
  14.79719654  4.22777044  9.00000000
  12.68331132  8.45554088 11.11388522
  14.79719654 10.56942610 11.11388522
  12.68331132 10.56942610  9.00000000
  14.79719654  8.45554088  9.00000000
  12.68331132 12.68331132 11.11388522
  14.79719654 14.79719654 11.11388522
  12.68331132 14.79719654  9.00000000
  14.79719654 12.68331132  9.00000000
  12.68331132 16.91108176 11.11388522
  14.79719654 19.02496698 11.11388522
  12.68331132 19.02496698  9.00000000
  14.79719654 16.91108176  9.00000000
  16.91108176  0.00000000 11.11388522
  19.02496698  2.11388522 11.11388522
  16.91108176  2.11388522  9.00000000
  19.02496698  0.00000000  9.00000000
  16.91108176  4.22777044 11.11388522
  19.02496698  6.34165566 11.11388522
  16.91108176  6.34165566  9.00000000
  19.02496698  4.22777044  9.00000000
  16.91108176  8.45554088 11.11388522
  19.02496698 10.56942610 11.11388522
  16.91108176 10.56942610  9.00000000
  19.02496698  8.45554088  9.00000000
  16.91108176 12.68331132 11.11388522
  19.02496698 14.79719654 11.11388522
  16.91108176 14.79719654  9.00000000
  19.02496698 12.68331132  9.00000000
  16.91108176 16.91108176 11.11388522
  19.02496698 19.02496698 11.11388522
  16.91108176 19.02496698  9.00000000
  19.02496698 16.91108176  9.00000000



--------------------------------------------------------------------------------------------------------


 k-point   1 :   0.0000 0.0000 0.0000  plane waves:  265979

 maximum and minimum number of plane-waves per node :     66495    66494

 maximum number of plane-waves:    265979
 maximum index in each direction: 
   IXMAX=   39   IYMAX=   39   IZMAX=   41
   IXMIN=  -39   IYMIN=  -39   IZMIN=  -41


 real space projection operators:
  total allocation   :      56389.53 KBytes
  max/ min on nodes  :      14193.09      13944.56


 parallel 3D FFT for wavefunctions:
    minimum data exchange during FFTs selected (reduces bandwidth)
 parallel 3D FFT for charge:
    minimum data exchange during FFTs selected (reduces bandwidth)


 total amount of memory used by VASP MPI-rank0   214119. kBytes
=======================================================================

   base      :      30000. kBytes
   nonlr-proj:      40138. kBytes
   fftplans  :      35317. kBytes
   grid      :      85293. kBytes
   one-center:        793. kBytes
   wavefun   :      22578. kBytes

     INWAV:  cpu time      0.0001: real time      0.0001
 Broyden mixing: mesh for mixing (old mesh)
   NGX = 79   NGY = 79   NGZ = 83
  (NGX  =320   NGY  =320   NGZ  =336)
  gives a total of 518003 points

 initial charge density was supplied:
 charge density of overlapping atoms calculated
 number of electron    1422.0000000 magnetization 
 keeping initial charge density in first step


--------------------------------------------------------------------------------------------------------


 Maximum index for non-local projection operator         1581
 Maximum index for augmentation-charges          495 (set IRDMAX)


--------------------------------------------------------------------------------------------------------


 First call to EWALD:  gamma=   0.083
 Maximum number of real-space cells 3x 3x 3
 Maximum number of reciprocal cells 3x 3x 3

    FEWALD:  cpu time      0.0096: real time      0.0096


--------------------------------------- Iteration      1(   1)  ---------------------------------------


    POTLOK:  cpu time      0.3974: real time      0.3978
    SETDIJ:  cpu time      5.5461: real time      5.5469
    TRIAL :  cpu time     23.9662: real time     23.9679
    CORREC:  cpu time      0.0012: real time      0.0012
    --------------------------------------------
      LOOP:  cpu time     29.9236: real time     29.9264

 eigenvalue-minimisations  :  2560
 total energy-change (2. order) : 0.1119134E+05  (-0.8133341E+05)
 number of electron    1422.0000000 magnetization 
 augmentation part     1422.0000000 magnetization 

 DIPCOR: dipole corrections for dipol
 direction  3 min pos     1,
 dipolmoment           0.000000      0.000000      0.000211 electrons x Angstroem
 Tr[quadrupol]   -110345.590671

 energy correction for charged system         0.000000 eV
 dipol+quadrupol energy correction           -0.000000 eV
 added-field ion interaction          0.005621 eV  (added to PSCEN)


 Free energy of the ion-electron system (eV)
  ---------------------------------------------------
  alpha Z        PSCENC =      1354.42105440
  Ewald energy   TEWEN  =    416548.92794609
  -Hartree energ DENC   =   -525487.38695042
  -exchange      EXHF   =         0.00000000
  -V(xc)+E(xc)   XCENC  =      6666.89830717
  PAW double counting   =    100736.37000080  -113056.36118364
  entropy T*S    EENTRO =        -0.07634474
  eigenvalues    EBANDS =    -27259.24279606
  atomic energy  EATOM  =    151687.78999461
  ---------------------------------------------------
[...]
   -.179E+02 -.742E+01 0.712E+03   0.180E+02 0.747E+01 -.716E+03   -.946E-01 -.780E-01 0.346E+01
   -.127E+02 -.187E+02 -.689E+03   0.127E+02 0.188E+02 0.692E+03   0.317E-01 -.366E-01 -.352E+01
   -.643E+01 -.592E+01 -.693E+03   0.642E+01 0.593E+01 0.697E+03   0.120E-01 -.159E-01 -.350E+01
   -.556E+01 -.657E+01 0.703E+03   0.555E+01 0.659E+01 -.707E+03   0.119E-01 -.189E-01 0.343E+01
   -.786E+01 -.844E+01 0.704E+03   0.786E+01 0.847E+01 -.708E+03   -.244E-02 -.467E-01 0.343E+01
 -----------------------------------------------------------------------------------------------
   -.109E+00 0.286E-03 0.132E+02   0.185E-11 0.318E-12 0.106E-10   -.341E-15 -.153E-15 -.105E+02


 POSITION                                       TOTAL-FORCE (eV/Angst)
 -----------------------------------------------------------------------------------
     13.83084     10.56943     13.38544        -0.169859      0.000000     -0.127025
     11.53578     10.56943     13.38544         0.169859      0.000000     -0.127025
      0.00000      0.00000      9.00000        -0.001210      0.000000      0.516972
      2.11389      2.11389      9.00000        -0.000000     -0.003961      0.516773
      0.00000      2.11389     11.11389        -0.001732     -0.004393     -0.479456
      2.11389      0.00000     11.11389        -0.000000      0.000000     -0.480029
      0.00000      4.22777      9.00000         0.000725     -0.008590      0.516742
      2.11389      6.34166      9.00000        -0.000000     -0.007823      0.516714
      0.00000      6.34166     11.11389         0.004747     -0.009966     -0.477598
      2.11389      4.22777     11.11389        -0.000000     -0.006731     -0.479263
      0.00000      8.45554      9.00000         0.012329     -0.007534      0.516732
      2.11389     10.56943      9.00000        -0.000000      0.000000      0.516830
      0.00000     10.56943     11.11389         0.017112      0.000000     -0.477090
      2.11389      8.45554     11.11389        -0.000000     -0.005109     -0.478055
      0.00000     12.68331      9.00000         0.012329      0.007534      0.516732
      2.11389     14.79720      9.00000        -0.000000      0.007823      0.516714
      0.00000     14.79720     11.11389         0.004747      0.009966     -0.477598
      2.11389     12.68331     11.11389        -0.000000      0.005109     -0.478055
      0.00000     16.91108      9.00000         0.000725      0.008590      0.516742
      2.11389     19.02497      9.00000        -0.000000      0.003961      0.516773
      0.00000     19.02497     11.11389        -0.001732      0.004393     -0.479456
      2.11389     16.91108     11.11389        -0.000000      0.006731     -0.479263
      4.22777      0.00000      9.00000         0.001210      0.000000      0.516972
      6.34166      2.11389      9.00000         0.002146     -0.005764      0.517831
      4.22777      2.11389     11.11389         0.001732     -0.004393     -0.479456
      6.34166      0.00000     11.11389         0.003280      0.000000     -0.479014
      4.22777      4.22777      9.00000        -0.000725     -0.008590      0.516742
      6.34166      6.34166      9.00000        -0.007873     -0.020015      0.515561
      4.22777      6.34166     11.11389        -0.004747     -0.009966     -0.477598
      6.34166      4.22777     11.11389         0.004246     -0.013139     -0.476454
      4.22777      8.45554      9.00000        -0.012329     -0.007534      0.516732
      6.34166     10.56943      9.00000        -0.043956      0.000000      0.515235
      4.22777     10.56943     11.11389        -0.017112      0.000000     -0.477090
      6.34166      8.45554     11.11389        -0.036909     -0.017221     -0.473258
      4.22777     12.68331      9.00000        -0.012329      0.007534      0.516732
      6.34166     14.79720      9.00000        -0.007873      0.020015      0.515561
      4.22777     14.79720     11.11389        -0.004747      0.009966     -0.477598
      6.34166     12.68331     11.11389        -0.036909      0.017221     -0.473258
      4.22777     16.91108      9.00000        -0.000725      0.008590      0.516742
      6.34166     19.02497      9.00000         0.002146      0.005764      0.517831
      4.22777     19.02497     11.11389         0.001732      0.004393     -0.479456
      6.34166     16.91108     11.11389         0.004246      0.013139     -0.476454
      8.45554      0.00000      9.00000         0.002821      0.000000      0.518202
     10.56943      2.11389      9.00000         0.002505     -0.005387      0.519790
      8.45554      2.11389     11.11389         0.004880     -0.003449     -0.476566
     10.56943      0.00000     11.11389         0.002774      0.000000     -0.476749
      8.45554      4.22777      9.00000         0.003399     -0.017554      0.521491
     10.56943      6.34166      9.00000         0.007892     -0.048709      0.536732
      8.45554      6.34166     11.11389         0.018852     -0.049161     -0.460971
     10.56943      4.22777     11.11389         0.008530     -0.001063     -0.464724
      8.45554      8.45554      9.00000        -0.032637     -0.049485      0.491593
     10.56943     10.56943      9.00000        -0.000640      0.000000      0.242737
      8.45554     10.56943     11.11389        -0.295361      0.000000     -0.508802
     10.56943      8.45554     11.11389         0.107645     -0.328244     -0.391988
      8.45554     12.68331      9.00000        -0.032637      0.049485      0.491593
     10.56943     14.79720      9.00000         0.007892      0.048709      0.536732
      8.45554     14.79720     11.11389         0.018852      0.049161     -0.460971
     10.56943     12.68331     11.11389         0.107645      0.328244     -0.391988
      8.45554     16.91108      9.00000         0.003399      0.017554      0.521491
     10.56943     19.02497      9.00000         0.002505      0.005387      0.519790
      8.45554     19.02497     11.11389         0.004880      0.003449     -0.476566
     10.56943     16.91108     11.11389         0.008530      0.001063     -0.464724
     12.68331      0.00000      9.00000        -0.000000      0.000000      0.518949
     14.79720      2.11389      9.00000        -0.002505     -0.005387      0.519790
     12.68331      2.11389     11.11389        -0.000000      0.002112     -0.473713
     14.79720      0.00000     11.11389        -0.002774      0.000000     -0.476749
     12.68331      4.22777      9.00000        -0.000000     -0.013792      0.525276
     14.79720      6.34166      9.00000        -0.007892     -0.048709      0.536732
     12.68331      6.34166     11.11389        -0.000000      0.023933     -0.405320
     14.79720      4.22777     11.11389        -0.008530     -0.001063     -0.464724
     12.68331      8.45554      9.00000        -0.000000     -0.077626      0.547350
     14.79720     10.56943      9.00000         0.000640      0.000000      0.242737
     12.68331     10.56943     11.11389        -0.000000      0.000000     -0.715045
     14.79720      8.45554     11.11389        -0.107645     -0.328244     -0.391988
     12.68331     12.68331      9.00000        -0.000000      0.077626      0.547350
     14.79720     14.79720      9.00000        -0.007892      0.048709      0.536732
     12.68331     14.79720     11.11389        -0.000000     -0.023933     -0.405320
     14.79720     12.68331     11.11389        -0.107645      0.328244     -0.391988
     12.68331     16.91108      9.00000        -0.000000      0.013792      0.525276
     14.79720     19.02497      9.00000        -0.002505      0.005387      0.519790
     12.68331     19.02497     11.11389        -0.000000     -0.002112     -0.473713
     14.79720     16.91108     11.11389        -0.008530      0.001063     -0.464724
     16.91108      0.00000      9.00000        -0.002821      0.000000      0.518202
     19.02497      2.11389      9.00000        -0.002146     -0.005764      0.517831
     16.91108      2.11389     11.11389        -0.004880     -0.003449     -0.476566
     19.02497      0.00000     11.11389        -0.003280      0.000000     -0.479014
     16.91108      4.22777      9.00000        -0.003399     -0.017554      0.521491
     19.02497      6.34166      9.00000         0.007873     -0.020015      0.515561
     16.91108      6.34166     11.11389        -0.018852     -0.049161     -0.460971
     19.02497      4.22777     11.11389        -0.004246     -0.013139     -0.476454
     16.91108      8.45554      9.00000         0.032637     -0.049485      0.491593
     19.02497     10.56943      9.00000         0.043956      0.000000      0.515235
     16.91108     10.56943     11.11389         0.295361      0.000000     -0.508802
     19.02497      8.45554     11.11389         0.036909     -0.017221     -0.473258
     16.91108     12.68331      9.00000         0.032637      0.049485      0.491593
     19.02497     14.79720      9.00000         0.007873      0.020015      0.515561
     16.91108     14.79720     11.11389        -0.018852      0.049161     -0.460971
     19.02497     12.68331     11.11389         0.036909      0.017221     -0.473258
     16.91108     16.91108      9.00000        -0.003399      0.017554      0.521491
     19.02497     19.02497      9.00000        -0.002146      0.005764      0.517831
     16.91108     19.02497     11.11389        -0.004880      0.003449     -0.476566
     19.02497     16.91108     11.11389        -0.004246      0.013139     -0.476454
      0.00000      0.00000     11.11389         0.001591      0.000000      0.343287
      2.11389      2.11389     11.11389        -0.000000      0.004208      0.343398
      0.00000      2.11389      9.00000         0.000637      0.004703     -0.379970
      2.11389      0.00000      9.00000        -0.000000      0.000000     -0.379782
      0.00000      4.22777     11.11389        -0.001191      0.009470      0.342249
      2.11389      6.34166     11.11389        -0.000000      0.009091      0.342004
      0.00000      6.34166      9.00000        -0.005725      0.012214     -0.379511
      2.11389      4.22777      9.00000        -0.000000      0.007923     -0.379694
      0.00000      8.45554     11.11389        -0.011227      0.009704      0.340323
      2.11389     10.56943     11.11389        -0.000000      0.000000      0.340957
      0.00000     10.56943      9.00000        -0.014209      0.000000     -0.378042
      2.11389      8.45554      9.00000        -0.000000      0.006522     -0.379214
      0.00000     12.68331     11.11389        -0.011227     -0.009704      0.340323
      2.11389     14.79720     11.11389        -0.000000     -0.009091      0.342004
      0.00000     14.79720      9.00000        -0.005725     -0.012214     -0.379511
      2.11389     12.68331      9.00000        -0.000000     -0.006522     -0.379214
      0.00000     16.91108     11.11389        -0.001191     -0.009470      0.342249
      2.11389     19.02497     11.11389        -0.000000     -0.004208      0.343398
      0.00000     19.02497      9.00000         0.000637     -0.004703     -0.379970
      2.11389     16.91108      9.00000        -0.000000     -0.007923     -0.379694
      4.22777      0.00000     11.11389        -0.001591      0.000000      0.343287
      6.34166      2.11389     11.11389        -0.003290      0.004428      0.341694
      4.22777      2.11389      9.00000        -0.000637      0.004703     -0.379970
      6.34166      0.00000      9.00000        -0.002310      0.000000     -0.380451
      4.22777      4.22777     11.11389         0.001191      0.009470      0.342249
      6.34166      6.34166     11.11389         0.012292      0.026546      0.338314
      4.22777      6.34166      9.00000         0.005725      0.012214     -0.379511
      6.34166      4.22777      9.00000         0.000711      0.013032     -0.380786
      4.22777      8.45554     11.11389         0.011227      0.009704      0.340323
      6.34166     10.56943     11.11389         0.042767      0.000000      0.339410
      4.22777     10.56943      9.00000         0.014209      0.000000     -0.378042
      6.34166      8.45554      9.00000         0.027012      0.021733     -0.374719
      4.22777     12.68331     11.11389         0.011227     -0.009704      0.340323
      6.34166     14.79720     11.11389         0.012292     -0.026546      0.338314
      4.22777     14.79720      9.00000         0.005725     -0.012214     -0.379511
      6.34166     12.68331      9.00000         0.027012     -0.021733     -0.374719
      4.22777     16.91108     11.11389         0.001191     -0.009470      0.342249
      6.34166     19.02497     11.11389        -0.003290     -0.004428      0.341694
      4.22777     19.02497      9.00000        -0.000637     -0.004703     -0.379970
      6.34166     16.91108      9.00000         0.000711     -0.013032     -0.380786
      8.45554      0.00000     11.11389        -0.004131      0.000000      0.341122
     10.56943      2.11389     11.11389        -0.004400      0.001734      0.337469
      8.45554      2.11389      9.00000        -0.003243      0.005301     -0.381828
     10.56943      0.00000      9.00000        -0.002304      0.000000     -0.381989
      8.45554      4.22777     11.11389        -0.008598      0.010492      0.334448
     10.56943      6.34166     11.11389        -0.032459      0.020684      0.294859
      8.45554      6.34166      9.00000         0.003473      0.037661     -0.380534
     10.56943      4.22777      9.00000        -0.005262      0.012838     -0.387587
      8.45554      8.45554     11.11389         0.065779      0.106828      0.346038
     10.56943     10.56943     11.11389        -0.202363      0.000000      0.909733
      8.45554     10.56943      9.00000         0.099561      0.000000     -0.308385
     10.56943      8.45554      9.00000        -0.018661      0.123697     -0.334335
      8.45554     12.68331     11.11389         0.065779     -0.106828      0.346038
     10.56943     14.79720     11.11389        -0.032459     -0.020684      0.294859
      8.45554     14.79720      9.00000         0.003473     -0.037661     -0.380534
     10.56943     12.68331      9.00000        -0.018661     -0.123697     -0.334335
      8.45554     16.91108     11.11389        -0.008598     -0.010492      0.334448
     10.56943     19.02497     11.11389        -0.004400     -0.001734      0.337469
      8.45554     19.02497      9.00000        -0.003243     -0.005301     -0.381828
     10.56943     16.91108      9.00000        -0.005262     -0.012838     -0.387587
     12.68331      0.00000     11.11389        -0.000000      0.000000      0.339424
     14.79720      2.11389     11.11389         0.004400      0.001734      0.337469
     12.68331      2.11389      9.00000        -0.000000      0.003403     -0.383946
     14.79720      0.00000      9.00000         0.002304      0.000000     -0.381989
     12.68331      4.22777     11.11389        -0.000000      0.001180      0.322863
     14.79720      6.34166     11.11389         0.032459      0.020684      0.294859
     12.68331      6.34166      9.00000        -0.000000      0.021494     -0.416326
     14.79720      4.22777      9.00000         0.005262      0.012838     -0.387587
     12.68331      8.45554     11.11389        -0.000000     -0.118413     -0.064136
     14.79720     10.56943     11.11389         0.202363      0.000000      0.909733
     12.68331     10.56943      9.00000        -0.000000      0.000000     -0.315357
     14.79720      8.45554      9.00000         0.018661      0.123697     -0.334335
     12.68331     12.68331     11.11389        -0.000000      0.118413     -0.064136
     14.79720     14.79720     11.11389         0.032459     -0.020684      0.294859
     12.68331     14.79720      9.00000        -0.000000     -0.021494     -0.416326
     14.79720     12.68331      9.00000         0.018661     -0.123697     -0.334335
     12.68331     16.91108     11.11389        -0.000000     -0.001180      0.322863
     14.79720     19.02497     11.11389         0.004400     -0.001734      0.337469
     12.68331     19.02497      9.00000        -0.000000     -0.003403     -0.383946
     14.79720     16.91108      9.00000         0.005262     -0.012838     -0.387587
     16.91108      0.00000     11.11389         0.004131      0.000000      0.341122
     19.02497      2.11389     11.11389         0.003290      0.004428      0.341694
     16.91108      2.11389      9.00000         0.003243      0.005301     -0.381828
     19.02497      0.00000      9.00000         0.002310      0.000000     -0.380451
     16.91108      4.22777     11.11389         0.008598      0.010492      0.334448
     19.02497      6.34166     11.11389        -0.012292      0.026546      0.338314
     16.91108      6.34166      9.00000        -0.003473      0.037661     -0.380534
     19.02497      4.22777      9.00000        -0.000711      0.013032     -0.380786
     16.91108      8.45554     11.11389        -0.065779      0.106828      0.346038
     19.02497     10.56943     11.11389        -0.042767      0.000000      0.339410
     16.91108     10.56943      9.00000        -0.099561      0.000000     -0.308385
     19.02497      8.45554      9.00000        -0.027012      0.021733     -0.374719
     16.91108     12.68331     11.11389        -0.065779     -0.106828      0.346038
     19.02497     14.79720     11.11389        -0.012292     -0.026546      0.338314
     16.91108     14.79720      9.00000        -0.003473     -0.037661     -0.380534
     19.02497     12.68331      9.00000        -0.027012     -0.021733     -0.374719
     16.91108     16.91108     11.11389         0.008598     -0.010492      0.334448
     19.02497     19.02497     11.11389         0.003290     -0.004428      0.341694
     16.91108     19.02497      9.00000         0.003243     -0.005301     -0.381828
     19.02497     16.91108      9.00000        -0.000711     -0.013032     -0.380786
 -----------------------------------------------------------------------------------
    total drift:                               -0.108891      0.000286      2.689847


--------------------------------------------------------------------------------------------------------



  FREE ENERGIE OF THE ION-ELECTRON SYSTEM (eV)
  ---------------------------------------------------
  free  energy   TOTEN  =     -1567.13908788 eV

  energy  without entropy=    -1567.13908788  energy(sigma->0) =    -1567.13908788



--------------------------------------------------------------------------------------------------------


    POTLOK:  cpu time     17.5450: real time     17.5462


--------------------------------------------------------------------------------------------------------


     LOOP+:  cpu time   2371.7316: real time   2372.4978
    4ORBIT:  cpu time      0.0000: real time      0.0000

 total amount of memory used by VASP MPI-rank0   214119. kBytes
=======================================================================

   base      :      30000. kBytes
   nonlr-proj:      40138. kBytes
   fftplans  :      35317. kBytes
   grid      :      85293. kBytes
   one-center:        793. kBytes
   wavefun   :      22578. kBytes

  
  
 General timing and accounting informations for this job:
 ========================================================
  
                  Total CPU time used (sec):     2416.379
                            User time (sec):     2340.519
                          System time (sec):       75.860
                         Elapsed time (sec):     2425.685
  
                   Maximum memory used (kb):     1423124.
                   Average memory used (kb):          N/A
  
                          Minor page faults:     10891798
                          Major page faults:            0
                 Voluntary context switches:        13791
