 **********************************************************************
                          MRCC program system
 **********************************************************************
 
                              Written by
     Mihaly Kallay, Peter R. Nagy, David Mester, Laszlo Gyevi-Nagy,
        Jozsef Csoka, P. Bernat Szabo, Zoltan Rolik, Gyula Samu,
     Jozsef Csontos, Bence Hegely, Adam Ganyecz, Istvan Ladjanszki,
       Lorant Szegedy, Bence Ladoczki, Klara Petrov, Mate Farkas,
                    Pal D. Mezei, and Reka A. Horvath
 
        Department of Physical Chemistry and Materials Science
            Budapest University of Technology and Economics
                  Budapest P.O.Box 91, H-1521 Hungary
 
                              www.mrcc.hu
 
                      Release date: March 18, 2022

 ************************ 2023-02-04 10:26:51 *************************
 Executing minp...

 Reading input from MINP...
 
 Input file:
 
calc=FNO-CCSD(T)
verbosity=3
mem=220GB
unit=angs
scfiguess=small
scfalg=locfit1
ccmaxit=400
ccsdalg=dfdirect
ccsdthreads=4
ccsdmkl=thr
ptthreads=4
lnoepsv=1e-5
naf_cor=1e-2
ECP=MCDHF-ECP-28
basis=bse_ACVQZ
basis_sm=def2-SVP
dfbasis_scf=def2-QZVPP-RI-JK
dfbasis_cor=bse_ACVQZ_mp2fit
core=0
unit=angs
geom=xyz
    6
Ag6_4
Ag    -0.81664218    -3.11145349     0.86871805
Ag     0.63449047     0.52712014    -1.08748367
Ag    -0.63760244    -0.52729300     1.09355498
Ag     0.45373888    -2.08646803    -1.28794340
Ag     0.81872644     3.11198783    -0.87229554
Ag    -0.45271116     2.08610654     1.28544958

ghost=serialno


 
 
 Checking keyword combinations...
 
 Keywords:
 
 active=none
 agrid=ld0006-ld0590
 agrid_pssp=ld0006-ld0194
 agrid_pssp_sm=ld0006-ld0074
 basis=bse_acvqz
 basis_sm=def2-svp
 basopt=off
 bfbasis=none
 bfgsmem=10
 bfgstol=1.0d-3
 bpcompo=0.985
 bpcompv=0.98
 bpdfo=0.985
 bpocc=0.985
 bppdo=0.985
 bppdv=0.98
 bpedo=0.985
 bpedv=0.98
 calc=ccsd(t)
 ccmaxit=400
 ccprog=ccsd
 ccsdalg=dfdirect
 ccsdmkl=thr
 ccsdrest=trf
 ccsdthreads=4
 cctol=6
 charge=0
 cialg=auto
 ciguess=off
 cmpgrp=auto
 comprest=off
 core=corr
 corembed=off
 csapprox=off
 cvs=off
 dboc=off
 delocsomofact=
 dendec=cholesky
 dens=0
 dfalg=lineq
 dfbasis_cab=none
 dfbasis_cor=bse_acvqz_mp2fit
 dfbasis_scf=def2-qzvpp-ri-jk
 dfbasis_scf_sm=def2-qzvpp-ri-jk
 dfintran=drpa
 dft=off
 dhexc=adc(2)
 diag=david
 docc=
 domrad=10.d0
 drpaalg=fit
 dual=off
 dual_df=off
 ecp=mcdhf-ecp-28
 edisp=off
 edisp_embed=off
 embed=off
 etemp=300
 epert=none
 eps=
 espcharge=off
 excrad=1.0
 excrad_fin=0.100000000D-02
 fitting=coulomb
 fmm=off
 fmmord=8
 freq=off
 gamma=1.d0
 gauss=spher
 geom=xyz
 gopt=off
 ghost=serialno
 gtol=7
 grdens=off
 gridbatch_cos=2000
 grtol=10
 guido_ct=off
 hamilton=dc
 iface=none
 intalg=auto
 itol=10
 laptol=1.d-2
 lccoporder=trffirst
 lcorthr=normal
 lccrest=off
 lmp2dens=on
 lnoepso=0.d0
 lnoepsv=1e-5
 boysalg=jacobi
 localcc=off
 localcorrsymm=off
 locintrf=disk
 mact=
 maxact=off
 maxdim=100
 maxex=0
 maxmicroit=100
 mcscfiguess=hf
 mem=220gb
 mmprog=
 molden=on
 mpitasks=1
 mulmet=0
 mult=
 nacto=0
 nactv=0
 naf_amp=1.d-2
 naf_cor=1e-2
 naf_scf=off
 nafalg=albe
 naftyp=
 nchol=auto
 ndeps=1e-3
 nstate=1
 nsing=0
 nto=off
 ntrip=0
 occ=
 occri=off
 oniom=off
 oniom_eechg=off
 oniom_pcm=off
 oniom_qcorr=off
 optalg=
 optmaxit=50
 optetol=1e-6
 optex=0
 optgtol=1e-4
 optstol=1e-3
 orblocc=off
 orbloce=off
 orbloco=off
 orblocv=off
 orblocguess=cholesky
 osveps=1e-3
 ovirt=ppl
 ovltol=1e-7
 ovosnorb=80.0
 pcm=off
 popul=off
 pressure=100000
 pssp=off
 ptfreq=0.0
 ptthreads=4
 qro=off
 qscf=off
 qmmm=off
 redcost_exc=off
 redcost_tddft=off
 refdet=none
 rest=0
 rgrid=log3
 rism=off
 rohfcore=semicanonical
 rohftype=semicanonical
 scfalg=locfit1
 scf_conv=difficult
 scfdamp=0.0d0
 scfdamp_mode=off
 scfdamp_end=50
 scfdamp_dampstep=0.d0
 scfdamp_dtol=0.0d0
 scfdamp_maxfact=0.0d0
 scfdamp_minfact=0.0d0
 scfdiis=on
 scfdiis_dtol=0.0d0
 scfdiis_end=50
 scfdiis_start=2
 scfdiis_step=1
 scfdiis_watch=off
 scfdiis_wrange=10
 scfdiis_wlimit=5
 scfdiis_delmax=2
 scfdtol=7
 scfext=10
 scfguessdens=
 scfiguess=small
 scfloc=pm
 scflshift=0.20
 scflshift_end=8
 scflshift_dtol=0.0
 scflshift_gaptol=0.20
 scfmaxit=50
 scftype=
 scftol=6
 scspe=1.d0
 scsph=1.d0
 scsps=1.2d0
 scsps_t=1.2d0
 scspt=0.33333333333333
 scspt_t=0.33333333333333
 scspv=1.d0
 spairtol=1e-4
 sqmprog=
 subminp=top
 symm=
 talg=occ
 temp=298.15
 test=off
 theodore=off
 tlmo=0.999
 tpao=0.94
 tprint=off
 uncontract=off
 unit=angs
 usedisk=2
 verbosity=3
 wpairtol=0.100000000E-05
 
 Calculating integrals for small-basis SCF...

 ************************ 2023-02-04 10:26:51 *************************
 Executing integ...

 Allocation of 220.0 Gbytes of memory...
 
 
 Number of atoms:                  6
 Charge:                           0
 Number of electrons:            114
 Number of core electrons:        48
 Spin multiplicity:                1
 
                 Cartesian coordinates [bohr]      Atomic mass [AMU]  Z
   1  Ag   -1.54323006   -5.87979495    1.64163919   106.905092      47
   2  Ag    1.19901322    0.99611270   -2.05504630   106.905092      47
   3  Ag   -1.20489399   -0.99643936    2.06651942   106.905092      47
   4  Ag    0.85744222   -3.94285315   -2.43386029   106.905092      47
   5  Ag    1.54716874    5.88080470   -1.64839967   106.905092      47
   6  Ag   -0.85550011    3.94217003    2.42914765   106.905092      47
 
 This molecule is an asymmetric top.
 
 Point group: C1  
 Computational point group: C1  
 
 Cartesian coordinates in standard orientation [bohr]
   1  Ag    6.16101266   -1.30016674   -0.00403386
   2  Ag   -1.33250044    2.20849869   -0.00803850
   3  Ag    1.33465977   -2.22121097    0.00827893
   4  Ag    3.55284542    3.09552068    0.00388463
   5  Ag   -6.16316287    1.30775464    0.00422696
   6  Ag   -3.55285454   -3.09039630   -0.00431815
 
 Nuclear repulsion energy [au]:        856.147314833769
 
 
 Basis set information:
 
 Maximum angular momentum: i
 Maximum number of contracted Gaussians:   11
 Maximum number of primitive Gaussians:    13
 Spherical harmonic GTOs are used.
 
 
 Conventional basis set:
 
   1  Ag def2-svp [ 7s 6p 5d 1f | 5s 3p 2d 1f ]
   2  Ag def2-svp [ 7s 6p 5d 1f | 5s 3p 2d 1f ]
   3  Ag def2-svp [ 7s 6p 5d 1f | 5s 3p 2d 1f ]
   4  Ag def2-svp [ 7s 6p 5d 1f | 5s 3p 2d 1f ]
   5  Ag def2-svp [ 7s 6p 5d 1f | 5s 3p 2d 1f ]
   6  Ag def2-svp [ 7s 6p 5d 1f | 5s 3p 2d 1f ]
 
 Basis functions:
            1             2             3             4             5             6             7             8             9            10
    0    1Ag1s         1Ag2s         1Ag3s         1Ag4s         1Ag5s         1Ag1pz        1Ag1py        1Ag1px        1Ag2pz        1Ag2py    
    1    1Ag2px        1Ag3pz        1Ag3py        1Ag3px        1Ag1d-2       1Ag1d-1       1Ag1d0        1Ag1d+1       1Ag1d+2       1Ag2d-2   
    2    1Ag2d-1       1Ag2d0        1Ag2d+1       1Ag2d+2       1Ag1f-3       1Ag1f-2       1Ag1f-1       1Ag1f0        1Ag1f+1       1Ag1f+2   
    3    1Ag1f+3       2Ag1s         2Ag2s         2Ag3s         2Ag4s         2Ag5s         2Ag1pz        2Ag1py        2Ag1px        2Ag2pz    
    4    2Ag2py        2Ag2px        2Ag3pz        2Ag3py        2Ag3px        2Ag1d-2       2Ag1d-1       2Ag1d0        2Ag1d+1       2Ag1d+2   
    5    2Ag2d-2       2Ag2d-1       2Ag2d0        2Ag2d+1       2Ag2d+2       2Ag1f-3       2Ag1f-2       2Ag1f-1       2Ag1f0        2Ag1f+1   
    6    2Ag1f+2       2Ag1f+3       3Ag1s         3Ag2s         3Ag3s         3Ag4s         3Ag5s         3Ag1pz        3Ag1py        3Ag1px    
    7    3Ag2pz        3Ag2py        3Ag2px        3Ag3pz        3Ag3py        3Ag3px        3Ag1d-2       3Ag1d-1       3Ag1d0        3Ag1d+1   
    8    3Ag1d+2       3Ag2d-2       3Ag2d-1       3Ag2d0        3Ag2d+1       3Ag2d+2       3Ag1f-3       3Ag1f-2       3Ag1f-1       3Ag1f0    
    9    3Ag1f+1       3Ag1f+2       3Ag1f+3       4Ag1s         4Ag2s         4Ag3s         4Ag4s         4Ag5s         4Ag1pz        4Ag1py    
   10    4Ag1px        4Ag2pz        4Ag2py        4Ag2px        4Ag3pz        4Ag3py        4Ag3px        4Ag1d-2       4Ag1d-1       4Ag1d0    
   11    4Ag1d+1       4Ag1d+2       4Ag2d-2       4Ag2d-1       4Ag2d0        4Ag2d+1       4Ag2d+2       4Ag1f-3       4Ag1f-2       4Ag1f-1   
   12    4Ag1f0        4Ag1f+1       4Ag1f+2       4Ag1f+3       5Ag1s         5Ag2s         5Ag3s         5Ag4s         5Ag5s         5Ag1pz    
   13    5Ag1py        5Ag1px        5Ag2pz        5Ag2py        5Ag2px        5Ag3pz        5Ag3py        5Ag3px        5Ag1d-2       5Ag1d-1   
   14    5Ag1d0        5Ag1d+1       5Ag1d+2       5Ag2d-2       5Ag2d-1       5Ag2d0        5Ag2d+1       5Ag2d+2       5Ag1f-3       5Ag1f-2   
   15    5Ag1f-1       5Ag1f0        5Ag1f+1       5Ag1f+2       5Ag1f+3       6Ag1s         6Ag2s         6Ag3s         6Ag4s         6Ag5s     
   16    6Ag1pz        6Ag1py        6Ag1px        6Ag2pz        6Ag2py        6Ag2px        6Ag3pz        6Ag3py        6Ag3px        6Ag1d-2   
   17    6Ag1d-1       6Ag1d0        6Ag1d+1       6Ag1d+2       6Ag2d-2       6Ag2d-1       6Ag2d0        6Ag2d+1       6Ag2d+2       6Ag1f-3   
   18    6Ag1f-2       6Ag1f-1       6Ag1f0        6Ag1f+1       6Ag1f+2       6Ag1f+3   
 
 Maximum number of basis functions per shell:   10
 Total number of basis functions:    186
 
 
 Fitting basis set for the SCF calculation:
 
   1  Ag def2-qzvpp-ri-jk [ 13s 12p 10d 9f 6g 3h 2i | 11s 10p 9d 8f 6g 3h 2i ]
   2  Ag def2-qzvpp-ri-jk [ 13s 12p 10d 9f 6g 3h 2i | 11s 10p 9d 8f 6g 3h 2i ]
   3  Ag def2-qzvpp-ri-jk [ 13s 12p 10d 9f 6g 3h 2i | 11s 10p 9d 8f 6g 3h 2i ]
   4  Ag def2-qzvpp-ri-jk [ 13s 12p 10d 9f 6g 3h 2i | 11s 10p 9d 8f 6g 3h 2i ]
   5  Ag def2-qzvpp-ri-jk [ 13s 12p 10d 9f 6g 3h 2i | 11s 10p 9d 8f 6g 3h 2i ]
   6  Ag def2-qzvpp-ri-jk [ 13s 12p 10d 9f 6g 3h 2i | 11s 10p 9d 8f 6g 3h 2i ]
 
 Basis functions:
            1             2             3             4             5             6             7             8             9            10
    0    1Ag1s         1Ag2s         1Ag3s         1Ag4s         1Ag5s         1Ag6s         1Ag7s         1Ag8s         1Ag9s         1Ag10s    
    1    1Ag11s        1Ag1pz        1Ag1py        1Ag1px        1Ag2pz        1Ag2py        1Ag2px        1Ag3pz        1Ag3py        1Ag3px    
    2    1Ag4pz        1Ag4py        1Ag4px        1Ag5pz        1Ag5py        1Ag5px        1Ag6pz        1Ag6py        1Ag6px        1Ag7pz    
    3    1Ag7py        1Ag7px        1Ag8pz        1Ag8py        1Ag8px        1Ag9pz        1Ag9py        1Ag9px        1Ag10pz       1Ag10py   
    4    1Ag10px       1Ag1d-2       1Ag1d-1       1Ag1d0        1Ag1d+1       1Ag1d+2       1Ag2d-2       1Ag2d-1       1Ag2d0        1Ag2d+1   
    5    1Ag2d+2       1Ag3d-2       1Ag3d-1       1Ag3d0        1Ag3d+1       1Ag3d+2       1Ag4d-2       1Ag4d-1       1Ag4d0        1Ag4d+1   
    6    1Ag4d+2       1Ag5d-2       1Ag5d-1       1Ag5d0        1Ag5d+1       1Ag5d+2       1Ag6d-2       1Ag6d-1       1Ag6d0        1Ag6d+1   
    7    1Ag6d+2       1Ag7d-2       1Ag7d-1       1Ag7d0        1Ag7d+1       1Ag7d+2       1Ag8d-2       1Ag8d-1       1Ag8d0        1Ag8d+1   
    8    1Ag8d+2       1Ag9d-2       1Ag9d-1       1Ag9d0        1Ag9d+1       1Ag9d+2       1Ag1f-3       1Ag1f-2       1Ag1f-1       1Ag1f0    
    9    1Ag1f+1       1Ag1f+2       1Ag1f+3       1Ag2f-3       1Ag2f-2       1Ag2f-1       1Ag2f0        1Ag2f+1       1Ag2f+2       1Ag2f+3   
   10    1Ag3f-3       1Ag3f-2       1Ag3f-1       1Ag3f0        1Ag3f+1       1Ag3f+2       1Ag3f+3       1Ag4f-3       1Ag4f-2       1Ag4f-1   
   11    1Ag4f0        1Ag4f+1       1Ag4f+2       1Ag4f+3       1Ag5f-3       1Ag5f-2       1Ag5f-1       1Ag5f0        1Ag5f+1       1Ag5f+2   
   12    1Ag5f+3       1Ag6f-3       1Ag6f-2       1Ag6f-1       1Ag6f0        1Ag6f+1       1Ag6f+2       1Ag6f+3       1Ag7f-3       1Ag7f-2   
   13    1Ag7f-1       1Ag7f0        1Ag7f+1       1Ag7f+2       1Ag7f+3       1Ag8f-3       1Ag8f-2       1Ag8f-1       1Ag8f0        1Ag8f+1   
   14    1Ag8f+2       1Ag8f+3       1Ag1g-4       1Ag1g-3       1Ag1g-2       1Ag1g-1       1Ag1g0        1Ag1g+1       1Ag1g+2       1Ag1g+3   
   15    1Ag1g+4       1Ag2g-4       1Ag2g-3       1Ag2g-2       1Ag2g-1       1Ag2g0        1Ag2g+1       1Ag2g+2       1Ag2g+3       1Ag2g+4   
   16    1Ag3g-4       1Ag3g-3       1Ag3g-2       1Ag3g-1       1Ag3g0        1Ag3g+1       1Ag3g+2       1Ag3g+3       1Ag3g+4       1Ag4g-4   
   17    1Ag4g-3       1Ag4g-2       1Ag4g-1       1Ag4g0        1Ag4g+1       1Ag4g+2       1Ag4g+3       1Ag4g+4       1Ag5g-4       1Ag5g-3   
   18    1Ag5g-2       1Ag5g-1       1Ag5g0        1Ag5g+1       1Ag5g+2       1Ag5g+3       1Ag5g+4       1Ag6g-4       1Ag6g-3       1Ag6g-2   
   19    1Ag6g-1       1Ag6g0        1Ag6g+1       1Ag6g+2       1Ag6g+3       1Ag6g+4       1Ag1h-5       1Ag1h-4       1Ag1h-3       1Ag1h-2   
   20    1Ag1h-1       1Ag1h0        1Ag1h+1       1Ag1h+2       1Ag1h+3       1Ag1h+4       1Ag1h+5       1Ag2h-5       1Ag2h-4       1Ag2h-3   
   21    1Ag2h-2       1Ag2h-1       1Ag2h0        1Ag2h+1       1Ag2h+2       1Ag2h+3       1Ag2h+4       1Ag2h+5       1Ag3h-5       1Ag3h-4   
   22    1Ag3h-3       1Ag3h-2       1Ag3h-1       1Ag3h0        1Ag3h+1       1Ag3h+2       1Ag3h+3       1Ag3h+4       1Ag3h+5       1Ag1i-6   
   23    1Ag1i-5       1Ag1i-4       1Ag1i-3       1Ag1i-2       1Ag1i-1       1Ag1i0        1Ag1i+1       1Ag1i+2       1Ag1i+3       1Ag1i+4   
   24    1Ag1i+5       1Ag1i+6       1Ag2i-6       1Ag2i-5       1Ag2i-4       1Ag2i-3       1Ag2i-2       1Ag2i-1       1Ag2i0        1Ag2i+1   
   25    1Ag2i+2       1Ag2i+3       1Ag2i+4       1Ag2i+5       1Ag2i+6       2Ag1s         2Ag2s         2Ag3s         2Ag4s         2Ag5s     
   26    2Ag6s         2Ag7s         2Ag8s         2Ag9s         2Ag10s        2Ag11s        2Ag1pz        2Ag1py        2Ag1px        2Ag2pz    
   27    2Ag2py        2Ag2px        2Ag3pz        2Ag3py        2Ag3px        2Ag4pz        2Ag4py        2Ag4px        2Ag5pz        2Ag5py    
   28    2Ag5px        2Ag6pz        2Ag6py        2Ag6px        2Ag7pz        2Ag7py        2Ag7px        2Ag8pz        2Ag8py        2Ag8px    
   29    2Ag9pz        2Ag9py        2Ag9px        2Ag10pz       2Ag10py       2Ag10px       2Ag1d-2       2Ag1d-1       2Ag1d0        2Ag1d+1   
   30    2Ag1d+2       2Ag2d-2       2Ag2d-1       2Ag2d0        2Ag2d+1       2Ag2d+2       2Ag3d-2       2Ag3d-1       2Ag3d0        2Ag3d+1   
   31    2Ag3d+2       2Ag4d-2       2Ag4d-1       2Ag4d0        2Ag4d+1       2Ag4d+2       2Ag5d-2       2Ag5d-1       2Ag5d0        2Ag5d+1   
   32    2Ag5d+2       2Ag6d-2       2Ag6d-1       2Ag6d0        2Ag6d+1       2Ag6d+2       2Ag7d-2       2Ag7d-1       2Ag7d0        2Ag7d+1   
   33    2Ag7d+2       2Ag8d-2       2Ag8d-1       2Ag8d0        2Ag8d+1       2Ag8d+2       2Ag9d-2       2Ag9d-1       2Ag9d0        2Ag9d+1   
   34    2Ag9d+2       2Ag1f-3       2Ag1f-2       2Ag1f-1       2Ag1f0        2Ag1f+1       2Ag1f+2       2Ag1f+3       2Ag2f-3       2Ag2f-2   
   35    2Ag2f-1       2Ag2f0        2Ag2f+1       2Ag2f+2       2Ag2f+3       2Ag3f-3       2Ag3f-2       2Ag3f-1       2Ag3f0        2Ag3f+1   
   36    2Ag3f+2       2Ag3f+3       2Ag4f-3       2Ag4f-2       2Ag4f-1       2Ag4f0        2Ag4f+1       2Ag4f+2       2Ag4f+3       2Ag5f-3   
   37    2Ag5f-2       2Ag5f-1       2Ag5f0        2Ag5f+1       2Ag5f+2       2Ag5f+3       2Ag6f-3       2Ag6f-2       2Ag6f-1       2Ag6f0    
   38    2Ag6f+1       2Ag6f+2       2Ag6f+3       2Ag7f-3       2Ag7f-2       2Ag7f-1       2Ag7f0        2Ag7f+1       2Ag7f+2       2Ag7f+3   
   39    2Ag8f-3       2Ag8f-2       2Ag8f-1       2Ag8f0        2Ag8f+1       2Ag8f+2       2Ag8f+3       2Ag1g-4       2Ag1g-3       2Ag1g-2   
   40    2Ag1g-1       2Ag1g0        2Ag1g+1       2Ag1g+2       2Ag1g+3       2Ag1g+4       2Ag2g-4       2Ag2g-3       2Ag2g-2       2Ag2g-1   
   41    2Ag2g0        2Ag2g+1       2Ag2g+2       2Ag2g+3       2Ag2g+4       2Ag3g-4       2Ag3g-3       2Ag3g-2       2Ag3g-1       2Ag3g0    
   42    2Ag3g+1       2Ag3g+2       2Ag3g+3       2Ag3g+4       2Ag4g-4       2Ag4g-3       2Ag4g-2       2Ag4g-1       2Ag4g0        2Ag4g+1   
   43    2Ag4g+2       2Ag4g+3       2Ag4g+4       2Ag5g-4       2Ag5g-3       2Ag5g-2       2Ag5g-1       2Ag5g0        2Ag5g+1       2Ag5g+2   
   44    2Ag5g+3       2Ag5g+4       2Ag6g-4       2Ag6g-3       2Ag6g-2       2Ag6g-1       2Ag6g0        2Ag6g+1       2Ag6g+2       2Ag6g+3   
   45    2Ag6g+4       2Ag1h-5       2Ag1h-4       2Ag1h-3       2Ag1h-2       2Ag1h-1       2Ag1h0        2Ag1h+1       2Ag1h+2       2Ag1h+3   
   46    2Ag1h+4       2Ag1h+5       2Ag2h-5       2Ag2h-4       2Ag2h-3       2Ag2h-2       2Ag2h-1       2Ag2h0        2Ag2h+1       2Ag2h+2   
   47    2Ag2h+3       2Ag2h+4       2Ag2h+5       2Ag3h-5       2Ag3h-4       2Ag3h-3       2Ag3h-2       2Ag3h-1       2Ag3h0        2Ag3h+1   
   48    2Ag3h+2       2Ag3h+3       2Ag3h+4       2Ag3h+5       2Ag1i-6       2Ag1i-5       2Ag1i-4       2Ag1i-3       2Ag1i-2       2Ag1i-1   
   49    2Ag1i0        2Ag1i+1       2Ag1i+2       2Ag1i+3       2Ag1i+4       2Ag1i+5       2Ag1i+6       2Ag2i-6       2Ag2i-5       2Ag2i-4   
   50    2Ag2i-3       2Ag2i-2       2Ag2i-1       2Ag2i0        2Ag2i+1       2Ag2i+2       2Ag2i+3       2Ag2i+4       2Ag2i+5       2Ag2i+6   
   51    3Ag1s         3Ag2s         3Ag3s         3Ag4s         3Ag5s         3Ag6s         3Ag7s         3Ag8s         3Ag9s         3Ag10s    
   52    3Ag11s        3Ag1pz        3Ag1py        3Ag1px        3Ag2pz        3Ag2py        3Ag2px        3Ag3pz        3Ag3py        3Ag3px    
   53    3Ag4pz        3Ag4py        3Ag4px        3Ag5pz        3Ag5py        3Ag5px        3Ag6pz        3Ag6py        3Ag6px        3Ag7pz    
   54    3Ag7py        3Ag7px        3Ag8pz        3Ag8py        3Ag8px        3Ag9pz        3Ag9py        3Ag9px        3Ag10pz       3Ag10py   
   55    3Ag10px       3Ag1d-2       3Ag1d-1       3Ag1d0        3Ag1d+1       3Ag1d+2       3Ag2d-2       3Ag2d-1       3Ag2d0        3Ag2d+1   
   56    3Ag2d+2       3Ag3d-2       3Ag3d-1       3Ag3d0        3Ag3d+1       3Ag3d+2       3Ag4d-2       3Ag4d-1       3Ag4d0        3Ag4d+1   
   57    3Ag4d+2       3Ag5d-2       3Ag5d-1       3Ag5d0        3Ag5d+1       3Ag5d+2       3Ag6d-2       3Ag6d-1       3Ag6d0        3Ag6d+1   
   58    3Ag6d+2       3Ag7d-2       3Ag7d-1       3Ag7d0        3Ag7d+1       3Ag7d+2       3Ag8d-2       3Ag8d-1       3Ag8d0        3Ag8d+1   
   59    3Ag8d+2       3Ag9d-2       3Ag9d-1       3Ag9d0        3Ag9d+1       3Ag9d+2       3Ag1f-3       3Ag1f-2       3Ag1f-1       3Ag1f0    
   60    3Ag1f+1       3Ag1f+2       3Ag1f+3       3Ag2f-3       3Ag2f-2       3Ag2f-1       3Ag2f0        3Ag2f+1       3Ag2f+2       3Ag2f+3   
   61    3Ag3f-3       3Ag3f-2       3Ag3f-1       3Ag3f0        3Ag3f+1       3Ag3f+2       3Ag3f+3       3Ag4f-3       3Ag4f-2       3Ag4f-1   
   62    3Ag4f0        3Ag4f+1       3Ag4f+2       3Ag4f+3       3Ag5f-3       3Ag5f-2       3Ag5f-1       3Ag5f0        3Ag5f+1       3Ag5f+2   
   63    3Ag5f+3       3Ag6f-3       3Ag6f-2       3Ag6f-1       3Ag6f0        3Ag6f+1       3Ag6f+2       3Ag6f+3       3Ag7f-3       3Ag7f-2   
   64    3Ag7f-1       3Ag7f0        3Ag7f+1       3Ag7f+2       3Ag7f+3       3Ag8f-3       3Ag8f-2       3Ag8f-1       3Ag8f0        3Ag8f+1   
   65    3Ag8f+2       3Ag8f+3       3Ag1g-4       3Ag1g-3       3Ag1g-2       3Ag1g-1       3Ag1g0        3Ag1g+1       3Ag1g+2       3Ag1g+3   
   66    3Ag1g+4       3Ag2g-4       3Ag2g-3       3Ag2g-2       3Ag2g-1       3Ag2g0        3Ag2g+1       3Ag2g+2       3Ag2g+3       3Ag2g+4   
   67    3Ag3g-4       3Ag3g-3       3Ag3g-2       3Ag3g-1       3Ag3g0        3Ag3g+1       3Ag3g+2       3Ag3g+3       3Ag3g+4       3Ag4g-4   
   68    3Ag4g-3       3Ag4g-2       3Ag4g-1       3Ag4g0        3Ag4g+1       3Ag4g+2       3Ag4g+3       3Ag4g+4       3Ag5g-4       3Ag5g-3   
   69    3Ag5g-2       3Ag5g-1       3Ag5g0        3Ag5g+1       3Ag5g+2       3Ag5g+3       3Ag5g+4       3Ag6g-4       3Ag6g-3       3Ag6g-2   
   70    3Ag6g-1       3Ag6g0        3Ag6g+1       3Ag6g+2       3Ag6g+3       3Ag6g+4       3Ag1h-5       3Ag1h-4       3Ag1h-3       3Ag1h-2   
   71    3Ag1h-1       3Ag1h0        3Ag1h+1       3Ag1h+2       3Ag1h+3       3Ag1h+4       3Ag1h+5       3Ag2h-5       3Ag2h-4       3Ag2h-3   
   72    3Ag2h-2       3Ag2h-1       3Ag2h0        3Ag2h+1       3Ag2h+2       3Ag2h+3       3Ag2h+4       3Ag2h+5       3Ag3h-5       3Ag3h-4   
   73    3Ag3h-3       3Ag3h-2       3Ag3h-1       3Ag3h0        3Ag3h+1       3Ag3h+2       3Ag3h+3       3Ag3h+4       3Ag3h+5       3Ag1i-6   
   74    3Ag1i-5       3Ag1i-4       3Ag1i-3       3Ag1i-2       3Ag1i-1       3Ag1i0        3Ag1i+1       3Ag1i+2       3Ag1i+3       3Ag1i+4   
   75    3Ag1i+5       3Ag1i+6       3Ag2i-6       3Ag2i-5       3Ag2i-4       3Ag2i-3       3Ag2i-2       3Ag2i-1       3Ag2i0        3Ag2i+1   
   76    3Ag2i+2       3Ag2i+3       3Ag2i+4       3Ag2i+5       3Ag2i+6       4Ag1s         4Ag2s         4Ag3s         4Ag4s         4Ag5s     
   77    4Ag6s         4Ag7s         4Ag8s         4Ag9s         4Ag10s        4Ag11s        4Ag1pz        4Ag1py        4Ag1px        4Ag2pz    
   78    4Ag2py        4Ag2px        4Ag3pz        4Ag3py        4Ag3px        4Ag4pz        4Ag4py        4Ag4px        4Ag5pz        4Ag5py    
   79    4Ag5px        4Ag6pz        4Ag6py        4Ag6px        4Ag7pz        4Ag7py        4Ag7px        4Ag8pz        4Ag8py        4Ag8px    
   80    4Ag9pz        4Ag9py        4Ag9px        4Ag10pz       4Ag10py       4Ag10px       4Ag1d-2       4Ag1d-1       4Ag1d0        4Ag1d+1   
   81    4Ag1d+2       4Ag2d-2       4Ag2d-1       4Ag2d0        4Ag2d+1       4Ag2d+2       4Ag3d-2       4Ag3d-1       4Ag3d0        4Ag3d+1   
   82    4Ag3d+2       4Ag4d-2       4Ag4d-1       4Ag4d0        4Ag4d+1       4Ag4d+2       4Ag5d-2       4Ag5d-1       4Ag5d0        4Ag5d+1   
   83    4Ag5d+2       4Ag6d-2       4Ag6d-1       4Ag6d0        4Ag6d+1       4Ag6d+2       4Ag7d-2       4Ag7d-1       4Ag7d0        4Ag7d+1   
   84    4Ag7d+2       4Ag8d-2       4Ag8d-1       4Ag8d0        4Ag8d+1       4Ag8d+2       4Ag9d-2       4Ag9d-1       4Ag9d0        4Ag9d+1   
   85    4Ag9d+2       4Ag1f-3       4Ag1f-2       4Ag1f-1       4Ag1f0        4Ag1f+1       4Ag1f+2       4Ag1f+3       4Ag2f-3       4Ag2f-2   
   86    4Ag2f-1       4Ag2f0        4Ag2f+1       4Ag2f+2       4Ag2f+3       4Ag3f-3       4Ag3f-2       4Ag3f-1       4Ag3f0        4Ag3f+1   
   87    4Ag3f+2       4Ag3f+3       4Ag4f-3       4Ag4f-2       4Ag4f-1       4Ag4f0        4Ag4f+1       4Ag4f+2       4Ag4f+3       4Ag5f-3   
   88    4Ag5f-2       4Ag5f-1       4Ag5f0        4Ag5f+1       4Ag5f+2       4Ag5f+3       4Ag6f-3       4Ag6f-2       4Ag6f-1       4Ag6f0    
   89    4Ag6f+1       4Ag6f+2       4Ag6f+3       4Ag7f-3       4Ag7f-2       4Ag7f-1       4Ag7f0        4Ag7f+1       4Ag7f+2       4Ag7f+3   
   90    4Ag8f-3       4Ag8f-2       4Ag8f-1       4Ag8f0        4Ag8f+1       4Ag8f+2       4Ag8f+3       4Ag1g-4       4Ag1g-3       4Ag1g-2   
   91    4Ag1g-1       4Ag1g0        4Ag1g+1       4Ag1g+2       4Ag1g+3       4Ag1g+4       4Ag2g-4       4Ag2g-3       4Ag2g-2       4Ag2g-1   
   92    4Ag2g0        4Ag2g+1       4Ag2g+2       4Ag2g+3       4Ag2g+4       4Ag3g-4       4Ag3g-3       4Ag3g-2       4Ag3g-1       4Ag3g0    
   93    4Ag3g+1       4Ag3g+2       4Ag3g+3       4Ag3g+4       4Ag4g-4       4Ag4g-3       4Ag4g-2       4Ag4g-1       4Ag4g0        4Ag4g+1   
   94    4Ag4g+2       4Ag4g+3       4Ag4g+4       4Ag5g-4       4Ag5g-3       4Ag5g-2       4Ag5g-1       4Ag5g0        4Ag5g+1       4Ag5g+2   
   95    4Ag5g+3       4Ag5g+4       4Ag6g-4       4Ag6g-3       4Ag6g-2       4Ag6g-1       4Ag6g0        4Ag6g+1       4Ag6g+2       4Ag6g+3   
   96    4Ag6g+4       4Ag1h-5       4Ag1h-4       4Ag1h-3       4Ag1h-2       4Ag1h-1       4Ag1h0        4Ag1h+1       4Ag1h+2       4Ag1h+3   
   97    4Ag1h+4       4Ag1h+5       4Ag2h-5       4Ag2h-4       4Ag2h-3       4Ag2h-2       4Ag2h-1       4Ag2h0        4Ag2h+1       4Ag2h+2   
   98    4Ag2h+3       4Ag2h+4       4Ag2h+5       4Ag3h-5       4Ag3h-4       4Ag3h-3       4Ag3h-2       4Ag3h-1       4Ag3h0        4Ag3h+1   
   99    4Ag3h+2       4Ag3h+3       4Ag3h+4       4Ag3h+5       4Ag1i-6       4Ag1i-5       4Ag1i-4       4Ag1i-3       4Ag1i-2       4Ag1i-1   
  100    4Ag1i0        4Ag1i+1       4Ag1i+2       4Ag1i+3       4Ag1i+4       4Ag1i+5       4Ag1i+6       4Ag2i-6       4Ag2i-5       4Ag2i-4   
  101    4Ag2i-3       4Ag2i-2       4Ag2i-1       4Ag2i0        4Ag2i+1       4Ag2i+2       4Ag2i+3       4Ag2i+4       4Ag2i+5       4Ag2i+6   
  102    5Ag1s         5Ag2s         5Ag3s         5Ag4s         5Ag5s         5Ag6s         5Ag7s         5Ag8s         5Ag9s         5Ag10s    
  103    5Ag11s        5Ag1pz        5Ag1py        5Ag1px        5Ag2pz        5Ag2py        5Ag2px        5Ag3pz        5Ag3py        5Ag3px    
  104    5Ag4pz        5Ag4py        5Ag4px        5Ag5pz        5Ag5py        5Ag5px        5Ag6pz        5Ag6py        5Ag6px        5Ag7pz    
  105    5Ag7py        5Ag7px        5Ag8pz        5Ag8py        5Ag8px        5Ag9pz        5Ag9py        5Ag9px        5Ag10pz       5Ag10py   
  106    5Ag10px       5Ag1d-2       5Ag1d-1       5Ag1d0        5Ag1d+1       5Ag1d+2       5Ag2d-2       5Ag2d-1       5Ag2d0        5Ag2d+1   
  107    5Ag2d+2       5Ag3d-2       5Ag3d-1       5Ag3d0        5Ag3d+1       5Ag3d+2       5Ag4d-2       5Ag4d-1       5Ag4d0        5Ag4d+1   
  108    5Ag4d+2       5Ag5d-2       5Ag5d-1       5Ag5d0        5Ag5d+1       5Ag5d+2       5Ag6d-2       5Ag6d-1       5Ag6d0        5Ag6d+1   
  109    5Ag6d+2       5Ag7d-2       5Ag7d-1       5Ag7d0        5Ag7d+1       5Ag7d+2       5Ag8d-2       5Ag8d-1       5Ag8d0        5Ag8d+1   
  110    5Ag8d+2       5Ag9d-2       5Ag9d-1       5Ag9d0        5Ag9d+1       5Ag9d+2       5Ag1f-3       5Ag1f-2       5Ag1f-1       5Ag1f0    
  111    5Ag1f+1       5Ag1f+2       5Ag1f+3       5Ag2f-3       5Ag2f-2       5Ag2f-1       5Ag2f0        5Ag2f+1       5Ag2f+2       5Ag2f+3   
  112    5Ag3f-3       5Ag3f-2       5Ag3f-1       5Ag3f0        5Ag3f+1       5Ag3f+2       5Ag3f+3       5Ag4f-3       5Ag4f-2       5Ag4f-1   
  113    5Ag4f0        5Ag4f+1       5Ag4f+2       5Ag4f+3       5Ag5f-3       5Ag5f-2       5Ag5f-1       5Ag5f0        5Ag5f+1       5Ag5f+2   
  114    5Ag5f+3       5Ag6f-3       5Ag6f-2       5Ag6f-1       5Ag6f0        5Ag6f+1       5Ag6f+2       5Ag6f+3       5Ag7f-3       5Ag7f-2   
  115    5Ag7f-1       5Ag7f0        5Ag7f+1       5Ag7f+2       5Ag7f+3       5Ag8f-3       5Ag8f-2       5Ag8f-1       5Ag8f0        5Ag8f+1   
  116    5Ag8f+2       5Ag8f+3       5Ag1g-4       5Ag1g-3       5Ag1g-2       5Ag1g-1       5Ag1g0        5Ag1g+1       5Ag1g+2       5Ag1g+3   
  117    5Ag1g+4       5Ag2g-4       5Ag2g-3       5Ag2g-2       5Ag2g-1       5Ag2g0        5Ag2g+1       5Ag2g+2       5Ag2g+3       5Ag2g+4   
  118    5Ag3g-4       5Ag3g-3       5Ag3g-2       5Ag3g-1       5Ag3g0        5Ag3g+1       5Ag3g+2       5Ag3g+3       5Ag3g+4       5Ag4g-4   
  119    5Ag4g-3       5Ag4g-2       5Ag4g-1       5Ag4g0        5Ag4g+1       5Ag4g+2       5Ag4g+3       5Ag4g+4       5Ag5g-4       5Ag5g-3   
  120    5Ag5g-2       5Ag5g-1       5Ag5g0        5Ag5g+1       5Ag5g+2       5Ag5g+3       5Ag5g+4       5Ag6g-4       5Ag6g-3       5Ag6g-2   
  121    5Ag6g-1       5Ag6g0        5Ag6g+1       5Ag6g+2       5Ag6g+3       5Ag6g+4       5Ag1h-5       5Ag1h-4       5Ag1h-3       5Ag1h-2   
  122    5Ag1h-1       5Ag1h0        5Ag1h+1       5Ag1h+2       5Ag1h+3       5Ag1h+4       5Ag1h+5       5Ag2h-5       5Ag2h-4       5Ag2h-3   
  123    5Ag2h-2       5Ag2h-1       5Ag2h0        5Ag2h+1       5Ag2h+2       5Ag2h+3       5Ag2h+4       5Ag2h+5       5Ag3h-5       5Ag3h-4   
  124    5Ag3h-3       5Ag3h-2       5Ag3h-1       5Ag3h0        5Ag3h+1       5Ag3h+2       5Ag3h+3       5Ag3h+4       5Ag3h+5       5Ag1i-6   
  125    5Ag1i-5       5Ag1i-4       5Ag1i-3       5Ag1i-2       5Ag1i-1       5Ag1i0        5Ag1i+1       5Ag1i+2       5Ag1i+3       5Ag1i+4   
  126    5Ag1i+5       5Ag1i+6       5Ag2i-6       5Ag2i-5       5Ag2i-4       5Ag2i-3       5Ag2i-2       5Ag2i-1       5Ag2i0        5Ag2i+1   
  127    5Ag2i+2       5Ag2i+3       5Ag2i+4       5Ag2i+5       5Ag2i+6       6Ag1s         6Ag2s         6Ag3s         6Ag4s         6Ag5s     
  128    6Ag6s         6Ag7s         6Ag8s         6Ag9s         6Ag10s        6Ag11s        6Ag1pz        6Ag1py        6Ag1px        6Ag2pz    
  129    6Ag2py        6Ag2px        6Ag3pz        6Ag3py        6Ag3px        6Ag4pz        6Ag4py        6Ag4px        6Ag5pz        6Ag5py    
  130    6Ag5px        6Ag6pz        6Ag6py        6Ag6px        6Ag7pz        6Ag7py        6Ag7px        6Ag8pz        6Ag8py        6Ag8px    
  131    6Ag9pz        6Ag9py        6Ag9px        6Ag10pz       6Ag10py       6Ag10px       6Ag1d-2       6Ag1d-1       6Ag1d0        6Ag1d+1   
  132    6Ag1d+2       6Ag2d-2       6Ag2d-1       6Ag2d0        6Ag2d+1       6Ag2d+2       6Ag3d-2       6Ag3d-1       6Ag3d0        6Ag3d+1   
  133    6Ag3d+2       6Ag4d-2       6Ag4d-1       6Ag4d0        6Ag4d+1       6Ag4d+2       6Ag5d-2       6Ag5d-1       6Ag5d0        6Ag5d+1   
  134    6Ag5d+2       6Ag6d-2       6Ag6d-1       6Ag6d0        6Ag6d+1       6Ag6d+2       6Ag7d-2       6Ag7d-1       6Ag7d0        6Ag7d+1   
  135    6Ag7d+2       6Ag8d-2       6Ag8d-1       6Ag8d0        6Ag8d+1       6Ag8d+2       6Ag9d-2       6Ag9d-1       6Ag9d0        6Ag9d+1   
  136    6Ag9d+2       6Ag1f-3       6Ag1f-2       6Ag1f-1       6Ag1f0        6Ag1f+1       6Ag1f+2       6Ag1f+3       6Ag2f-3       6Ag2f-2   
  137    6Ag2f-1       6Ag2f0        6Ag2f+1       6Ag2f+2       6Ag2f+3       6Ag3f-3       6Ag3f-2       6Ag3f-1       6Ag3f0        6Ag3f+1   
  138    6Ag3f+2       6Ag3f+3       6Ag4f-3       6Ag4f-2       6Ag4f-1       6Ag4f0        6Ag4f+1       6Ag4f+2       6Ag4f+3       6Ag5f-3   
  139    6Ag5f-2       6Ag5f-1       6Ag5f0        6Ag5f+1       6Ag5f+2       6Ag5f+3       6Ag6f-3       6Ag6f-2       6Ag6f-1       6Ag6f0    
  140    6Ag6f+1       6Ag6f+2       6Ag6f+3       6Ag7f-3       6Ag7f-2       6Ag7f-1       6Ag7f0        6Ag7f+1       6Ag7f+2       6Ag7f+3   
  141    6Ag8f-3       6Ag8f-2       6Ag8f-1       6Ag8f0        6Ag8f+1       6Ag8f+2       6Ag8f+3       6Ag1g-4       6Ag1g-3       6Ag1g-2   
  142    6Ag1g-1       6Ag1g0        6Ag1g+1       6Ag1g+2       6Ag1g+3       6Ag1g+4       6Ag2g-4       6Ag2g-3       6Ag2g-2       6Ag2g-1   
  143    6Ag2g0        6Ag2g+1       6Ag2g+2       6Ag2g+3       6Ag2g+4       6Ag3g-4       6Ag3g-3       6Ag3g-2       6Ag3g-1       6Ag3g0    
  144    6Ag3g+1       6Ag3g+2       6Ag3g+3       6Ag3g+4       6Ag4g-4       6Ag4g-3       6Ag4g-2       6Ag4g-1       6Ag4g0        6Ag4g+1   
  145    6Ag4g+2       6Ag4g+3       6Ag4g+4       6Ag5g-4       6Ag5g-3       6Ag5g-2       6Ag5g-1       6Ag5g0        6Ag5g+1       6Ag5g+2   
  146    6Ag5g+3       6Ag5g+4       6Ag6g-4       6Ag6g-3       6Ag6g-2       6Ag6g-1       6Ag6g0        6Ag6g+1       6Ag6g+2       6Ag6g+3   
  147    6Ag6g+4       6Ag1h-5       6Ag1h-4       6Ag1h-3       6Ag1h-2       6Ag1h-1       6Ag1h0        6Ag1h+1       6Ag1h+2       6Ag1h+3   
  148    6Ag1h+4       6Ag1h+5       6Ag2h-5       6Ag2h-4       6Ag2h-3       6Ag2h-2       6Ag2h-1       6Ag2h0        6Ag2h+1       6Ag2h+2   
  149    6Ag2h+3       6Ag2h+4       6Ag2h+5       6Ag3h-5       6Ag3h-4       6Ag3h-3       6Ag3h-2       6Ag3h-1       6Ag3h0        6Ag3h+1   
  150    6Ag3h+2       6Ag3h+3       6Ag3h+4       6Ag3h+5       6Ag1i-6       6Ag1i-5       6Ag1i-4       6Ag1i-3       6Ag1i-2       6Ag1i-1   
  151    6Ag1i0        6Ag1i+1       6Ag1i+2       6Ag1i+3       6Ag1i+4       6Ag1i+5       6Ag1i+6       6Ag2i-6       6Ag2i-5       6Ag2i-4   
  152    6Ag2i-3       6Ag2i-2       6Ag2i-1       6Ag2i0        6Ag2i+1       6Ag2i+2       6Ag2i+3       6Ag2i+4       6Ag2i+5       6Ag2i+6   
 
 Maximum number of basis functions per shell:   56
 Total number of basis functions:   1530
 
 
 Effective core potentials:
 
   1  Ag mcdhf-ecp-28        
   2  Ag mcdhf-ecp-28        
   3  Ag mcdhf-ecp-28        
   4  Ag mcdhf-ecp-28        
   5  Ag mcdhf-ecp-28        
   6  Ag mcdhf-ecp-28        
 
 Initializing the SAD routines for the initial guess...
 Checking the files required for the initial guess...
 Density files have not been found for the initial guess.
 Generating SCFDENSITIES.Ag.def2-svp.0
 CPU time [min]:     0.117                   Wall time [min]:     0.170
 
 Character table for point group C1:
 
          E  
    A     1
 
 Number of basis functions per irrep:
    A     186
 
 
 Calculation of overlap integrals...
 CPU time [min]:     0.119                   Wall time [min]:     0.170
 
 Calculation of the square root of the overlap matrix...
 Minimum eigenvalue of the overlap matrix: 0.627673E-03
 CPU time [min]:     0.145                   Wall time [min]:     0.172
 
 Calculation of kinetic energy integrals...
 CPU time [min]:     0.146                   Wall time [min]:     0.172
 Calculation of dipole moment integrals...
 CPU time [min]:     0.148                   Wall time [min]:     0.172
 Calculation of nuclear attraction integrals...
 CPU time [min]:     0.151                   Wall time [min]:     0.172
 Calculation of core potential integrals...
 CPU time [min]:     0.350                   Wall time [min]:     0.261
 
 Calculation of prescreening integrals...
 CPU time [min]:     0.674                   Wall time [min]:     0.270
 
 Calculation of two-center Coulomb integrals...
   1% done.
  12% done.
  23% done.
  35% done.
  48% done.
  63% done.
  74% done.
  86% done.
  97% done.
 100% done.
 CPU time [min]:     0.697                   Wall time [min]:     0.271
 
 Cholesky decomposition of the two-center matrix...
 Reciprocal of the condition number:  0.350839E-05
 CPU time [min]:     0.774                   Wall time [min]:     0.273
 
 
 Running small-basis SCF...

 ************************ 2023-02-04 10:27:08 *************************
 Executing scf...

 @scfsetup: integrals calculated directly
            mrcc/integ direct run
 @scfsetup: calculating on full matrices
            not using symmetry adapted basis
 @scfsetup: diis switched on
 @scfsetup: number of steps to extrapolate from  10
 @scfsetup: tolerance in energy deviation    0.100000E-05
            tolerance in density deviation    0.100000E-06
 @scfsetup: maximum number of iterations:  50
 @scfsetup: restricted closed shell hf calc
 @scfsetup: starting scf from superposition of atomic densities
 @scfsetup: occupation set:
            from initial orbitals
 @scfsetup: Parameter-set for SCF acceleration: difficult
 @scfsetup: diis runs from iteration:   2
 @scfsetup: diis runs to iteration:  50
 @scfsetup: diis runs in every iteration
 @scfsetup: diiswatch is disabled                   
 @scfsetup: diis dtol criteria to switch on:      0.0000E+00
           (or the iteration number below is reached)
 @scfsetup: damping is turned off.
 @scfsetup: dynamic level shifting
            tolarance in HOMO-LUMO gap:  0.200
            tolarance in density deviation:     0.0000E+00
            iteration step criteria to turn level shifting off: 8
 Allocation of 220.0 Gbytes of memory...
 ======================================================================
 ITERATION STEP   1
 CPU time [min]:     0.029                   Wall time [min]:     0.005
 

 SCF control                  : initial
 Damping factor/level shift   : 0.000/0.200
 DIIS [start/end/frequency]   :   2 / 50 /  1

 Constructing Fock-matrix...
 
 Pipek-Mezey localization...
 Step  Convergence
   1  61.435005762687
   2  23.602874977075
   3   5.105905326606
   4   0.762972552118
   5   0.006601217106
   6   0.002223954183
   7   0.002037363100
   8   0.001673241618
   9   0.001263101919
  10   0.000893227588
  11   0.000600883097
  12   0.000389070239
  13   0.000244815939
  14   0.000150790676
  15   0.000091413566
  16   0.000054783537
  17   0.000032548762
  18   0.000019217549
  19   0.000011292609
  20   0.000006613150
  21   0.000003862779
  22   0.000002251741
  23   0.000001310681
  24   0.000000762000
 CPU time [min]:     0.082                   Wall time [min]:     0.007
 
 Constructing local fitting domains...
 Maximum number of atoms in fitting domains:    6
 Average number of atoms in fitting domains:    6.0
 
 First step of Coulomb + first step of exchange...
 Exchange contribution is evaluated for MOs 1 to 57.
   1% done.
  13% done.
  25% done.
  40% done.
  55% done.
  70% done.
  83% done.
 100% done.
 CPU time [min]:     0.439                   Wall time [min]:     0.017
 
 Fitting and assembly step of exchange...
 CPU time [min]:     0.472                   Wall time [min]:     0.018
 
 Second step of Coulomb...
   1% done.
  13% done.
  25% done.
  40% done.
  55% done.
  70% done.
  83% done.
 100% done.
 CPU time [min]:     0.548                   Wall time [min]:     0.020
 
 Gradient norm:      1.8495E+00
 RMS of [F,P]:                                         0.02287072300537
 RMS of difference density:                            0.02145006995979
 Gap [au]:  0.13126117
 ALPHA OCC:  57
 BETA  OCC:  57
 
 ***HARTREE-FOCK ENERGY IN STEP   1 IS       -874.3231866137516590 [AU]
 ======================================================================
 ITERATION STEP   2
 CPU time [min]:     0.565                   Wall time [min]:     0.021
 

 SCF control                  : diis
 Damping factor/level shift   : 0.000/0.200
 DIIS [start/end/frequency]   :   2 / 50 /  1

 Constructing Fock-matrix...
 
 Pipek-Mezey localization...
 Step  Convergence
   1   9.709537578935
   2   4.786648155317
   3   0.139036766669
   4   0.000167673855
   5   0.000024763501
   6   0.000010022891
   7   0.000003986378
   8   0.000001589881
   9   0.000000634238
 CPU time [min]:     0.598                   Wall time [min]:     0.022
 
 Constructing local fitting domains...
 Maximum number of atoms in fitting domains:    6
 Average number of atoms in fitting domains:    6.0
 
 First step of Coulomb + first step of exchange...
 Exchange contribution is evaluated for MOs 1 to 57.
   1% done.
  13% done.
  25% done.
  40% done.
  55% done.
  70% done.
  83% done.
 100% done.
 CPU time [min]:     0.882                   Wall time [min]:     0.030
 
 Fitting and assembly step of exchange...
 CPU time [min]:     0.912                   Wall time [min]:     0.031
 
 Second step of Coulomb...
   1% done.
  13% done.
  25% done.
  40% done.
  55% done.
  70% done.
  83% done.
 100% done.
 CPU time [min]:     0.985                   Wall time [min]:     0.033
 
 Gradient norm:      3.9497E-01
 DIIS is running in this iteration step.
 RMS of [F,P]:                                         0.01009743407327
 RMS of difference density:                            0.01256110887515
 Gap [au]:  0.13758359
 ALPHA OCC:  57
 BETA  OCC:  57
 
 ***HARTREE-FOCK ENERGY IN STEP   2 IS       -875.7163632180131572 [AU]
 
 Step comparison  Energy Drift [au]  DIIS error drift  Gradient drift
        1            1.3932E+00         1.2773E-02       1.4545E+00
        2            8.7572E+02         1.0000E-07       1.4545E+00
 ======================================================================
 ITERATION STEP   3
 CPU time [min]:     1.027                   Wall time [min]:     0.034
 

 SCF control                  : diis
 Damping factor/level shift   : 0.000/0.200
 DIIS [start/end/frequency]   :   2 / 50 /  1

 Constructing Fock-matrix...
 
 Pipek-Mezey localization...
 Step  Convergence
   1  17.489636191200
   2   3.585246796882
   3   0.098626931079
   4   0.000216084572
   5   0.000000765695
 CPU time [min]:     1.063                   Wall time [min]:     0.035
 
 Constructing local fitting domains...
 Local fitting domains are unchanged.
 
 First step of Coulomb + first step of exchange...
 Exchange contribution is evaluated for MOs 1 to 57.
   1% done.
  13% done.
  25% done.
  40% done.
  55% done.
  70% done.
  83% done.
 100% done.
 CPU time [min]:     1.347                   Wall time [min]:     0.043
 
 Fitting and assembly step of exchange...
 CPU time [min]:     1.377                   Wall time [min]:     0.044
 
 Second step of Coulomb...
   1% done.
  13% done.
  25% done.
  40% done.
  55% done.
  70% done.
  83% done.
 100% done.
 CPU time [min]:     1.450                   Wall time [min]:     0.046
 
 Gradient norm:      1.0474E-01
 DIIS is running in this iteration step.
 RMS of [F,P]:                                         0.00325910500667
 RMS of difference density:                            0.00284335657607
 Gap [au]:  0.13849761
 ALPHA OCC:  57
 BETA  OCC:  57
 
 ***HARTREE-FOCK ENERGY IN STEP   3 IS       -875.9757560675261630 [AU]
 
 Step comparison  Energy Drift [au]  DIIS error drift  Gradient drift
        2            2.5939E-01         6.8383E-03       2.9023E-01
 ======================================================================
 ITERATION STEP   4
 CPU time [min]:     1.463                   Wall time [min]:     0.046
 

 SCF control                  : diis
 Damping factor/level shift   : 0.000/0.200
 DIIS [start/end/frequency]   :   2 / 50 /  1

 Constructing Fock-matrix...
 
 Pipek-Mezey localization...
 Step  Convergence
   1  21.052239759821
   2   5.765497982618
   3   0.057072720871
   4   0.000190265238
   5   0.000033046077
   6   0.000010611466
   7   0.000003370715
   8   0.000001072917
   9   0.000000341632
 CPU time [min]:     1.497                   Wall time [min]:     0.047
 
 Constructing local fitting domains...
 Local fitting domains are unchanged.
 
 First step of Coulomb + first step of exchange...
 Exchange contribution is evaluated for MOs 1 to 57.
   1% done.
  13% done.
  25% done.
  40% done.
  55% done.
  70% done.
  83% done.
 100% done.
 CPU time [min]:     1.781                   Wall time [min]:     0.055
 
 Fitting and assembly step of exchange...
 CPU time [min]:     1.811                   Wall time [min]:     0.056
 
 Second step of Coulomb...
   1% done.
  13% done.
  25% done.
  40% done.
  55% done.
  70% done.
  83% done.
 100% done.
 CPU time [min]:     1.883                   Wall time [min]:     0.058
 
 Gradient norm:      2.8197E-02
 DIIS is running in this iteration step.
 RMS of [F,P]:                                         0.00044865213888
 RMS of difference density:                            0.00120075644074
 Gap [au]:  0.13996112
 ALPHA OCC:  57
 BETA  OCC:  57
 
 ***HARTREE-FOCK ENERGY IN STEP   4 IS       -876.0135206682080025 [AU]
 
 Step comparison  Energy Drift [au]  DIIS error drift  Gradient drift
        3            3.7765E-02         2.8105E-03       7.6539E-02
 ======================================================================
 ITERATION STEP   5
 CPU time [min]:     1.897                   Wall time [min]:     0.058
 

 SCF control                  : diis
 Damping factor/level shift   : 0.000/0.200
 DIIS [start/end/frequency]   :   2 / 50 /  1

 Constructing Fock-matrix...
 
 Pipek-Mezey localization...
 Step  Convergence
   1  18.008032338946
   2   5.051547148394
   3   0.189667949533
   4   0.017752552390
   5   0.000001150596
   6   0.000000255077
 CPU time [min]:     1.927                   Wall time [min]:     0.059
 
 Constructing local fitting domains...
 Local fitting domains are unchanged.
 
 First step of Coulomb + first step of exchange...
 Exchange contribution is evaluated for MOs 1 to 57.
   1% done.
  13% done.
  25% done.
  40% done.
  55% done.
  70% done.
  83% done.
 100% done.
 CPU time [min]:     2.212                   Wall time [min]:     0.067
 
 Fitting and assembly step of exchange...
 CPU time [min]:     2.241                   Wall time [min]:     0.068
 
 Second step of Coulomb...
   1% done.
  13% done.
  25% done.
  40% done.
  55% done.
  70% done.
  83% done.
 100% done.
 CPU time [min]:     2.314                   Wall time [min]:     0.070
 
 Gradient norm:      1.8664E-02
 DIIS is running in this iteration step.
 RMS of [F,P]:                                         0.00022547997177
 RMS of difference density:                            0.00098249447275
 Gap [au]:  0.14011635
 ALPHA OCC:  57
 BETA  OCC:  57
 
 ***HARTREE-FOCK ENERGY IN STEP   5 IS       -876.0158400364275622 [AU]
 
 Step comparison  Energy Drift [au]  DIIS error drift  Gradient drift
        4            2.3194E-03         2.2317E-04       9.5331E-03
 ======================================================================
 ITERATION STEP   6
 CPU time [min]:     2.357                   Wall time [min]:     0.071
 

 SCF control                  : diis
 Damping factor/level shift   : 0.000/0.200
 DIIS [start/end/frequency]   :   2 / 50 /  1

 Constructing Fock-matrix...
 
 Pipek-Mezey localization...
 Step  Convergence
   1  19.798228442066
   2   5.364520161495
   3   0.247882211805
   4   0.000887776373
   5   0.000054718313
   6   0.000012654325
   7   0.000002936475
   8   0.000000681132
 CPU time [min]:     2.390                   Wall time [min]:     0.072
 
 Constructing local fitting domains...
 Local fitting domains are unchanged.
 
 First step of Coulomb + first step of exchange...
 Exchange contribution is evaluated for MOs 1 to 57.
   1% done.
  13% done.
  25% done.
  40% done.
  55% done.
  70% done.
  83% done.
 100% done.
 CPU time [min]:     2.674                   Wall time [min]:     0.080
 
 Fitting and assembly step of exchange...
 CPU time [min]:     2.704                   Wall time [min]:     0.081
 
 Second step of Coulomb...
   1% done.
  13% done.
  25% done.
  40% done.
  55% done.
  70% done.
  83% done.
 100% done.
 CPU time [min]:     2.776                   Wall time [min]:     0.083
 
 Gradient norm:      1.2113E-02
 DIIS is running in this iteration step.
 RMS of [F,P]:                                         0.00008544412327
 RMS of difference density:                            0.00047283224087
 Gap [au]:  0.14029002
 ALPHA OCC:  57
 BETA  OCC:  57
 
 ***HARTREE-FOCK ENERGY IN STEP   6 IS       -876.0166616893061473 [AU]
 
 Step comparison  Energy Drift [au]  DIIS error drift  Gradient drift
        5            8.2165E-04         1.4004E-04       6.5514E-03
 ======================================================================
 ITERATION STEP   7
 CPU time [min]:     2.790                   Wall time [min]:     0.083
 

 SCF control                  : diis
 Damping factor/level shift   : 0.000/0.200
 DIIS [start/end/frequency]   :   2 / 50 /  1

 Constructing Fock-matrix...
 
 Pipek-Mezey localization...
 Step  Convergence
   1  23.610442967181
   2  11.974702828800
   3  21.019056323904
   4   5.821844558661
   5   1.316184646121
   6   0.060953059703
   7   0.004733273494
   8   0.000918006507
   9   0.000354722182
  10   0.000161257284
  11   0.000077294885
  12   0.000037769642
  13   0.000018585221
  14   0.000009165987
  15   0.000004526449
  16   0.000002235070
  17   0.000001103678
  18   0.000000544954
  19   0.000000268991
  20   0.000000132826
  21   0.000000065531
  22   0.000000032336
  23   0.000000015945
  24   0.000000007884
  25   0.000000003874
  26   0.000000001919
  27   0.000000000941
  28   0.000000000475
  29   0.000000000235
  30   0.000000000116
  31   0.000000000056
  32   0.000000000028
  33   0.000000000014
  34   0.000000000007
  35   0.000000000003
  36   0.000000000002
  37   0.000000000001
 CPU time [min]:     2.858                   Wall time [min]:     0.085
 
 Constructing local fitting domains...
 Local fitting domains are unchanged.
 
 First step of Coulomb + first step of exchange...
 Exchange contribution is evaluated for MOs 1 to 57.
   1% done.
  13% done.
  25% done.
  40% done.
  55% done.
  70% done.
  83% done.
 100% done.
 CPU time [min]:     3.142                   Wall time [min]:     0.093
 
 Fitting and assembly step of exchange...
 CPU time [min]:     3.171                   Wall time [min]:     0.094
 
 Second step of Coulomb...
   1% done.
  13% done.
  25% done.
  40% done.
  55% done.
  70% done.
  83% done.
 100% done.
 CPU time [min]:     3.244                   Wall time [min]:     0.096
 
 Gradient norm:      6.8007E-03
 DIIS is running in this iteration step.
 RMS of [F,P]:                                         0.00004834014777
 RMS of difference density:                            0.00029090990671
 Gap [au]:  0.14026889
 ALPHA OCC:  57
 BETA  OCC:  57
 
 ***HARTREE-FOCK ENERGY IN STEP   7 IS       -876.0168606490569800 [AU]
 
 Step comparison  Energy Drift [au]  DIIS error drift  Gradient drift
        6            1.9896E-04         3.7104E-05       5.3122E-03
 ======================================================================
 ITERATION STEP   8
 CPU time [min]:     3.259                   Wall time [min]:     0.096
 

 SCF control                  : diis
 Damping factor/level shift   : 0.000/0.200
 DIIS [start/end/frequency]   :   2 / 50 /  1

 Constructing Fock-matrix...
 
 Pipek-Mezey localization...
 Step  Convergence
   1  23.460135869602
   2   7.913821171686
   3  15.237426355862
   4   4.344714575978
   5   1.241805653523
   6   0.041471509160
   7   0.005402545183
   8   0.001010786483
   9   0.000223698896
  10   0.000047297345
  11   0.000009980604
  12   0.000002101860
  13   0.000000441362
  14   0.000000092654
  15   0.000000019470
  16   0.000000004092
  17   0.000000000861
  18   0.000000000182
  19   0.000000000038
  20   0.000000000008
  21   0.000000000002
  22   0.000000000000
 CPU time [min]:     3.308                   Wall time [min]:     0.098
 
 Constructing local fitting domains...
 Local fitting domains are unchanged.
 
 First step of Coulomb + first step of exchange...
 Exchange contribution is evaluated for MOs 1 to 57.
   1% done.
  13% done.
  25% done.
  40% done.
  55% done.
  70% done.
  83% done.
 100% done.
 CPU time [min]:     3.592                   Wall time [min]:     0.106
 
 Fitting and assembly step of exchange...
 CPU time [min]:     3.622                   Wall time [min]:     0.107
 
 Second step of Coulomb...
   1% done.
  13% done.
  25% done.
  40% done.
  55% done.
  70% done.
  83% done.
 100% done.
 CPU time [min]:     3.695                   Wall time [min]:     0.109
 
 Gradient norm:      3.7023E-03
 DIIS is running in this iteration step.
 RMS of [F,P]:                                         0.00001957854212
 RMS of difference density:                            0.00011891245594
 Gap [au]:  0.14028311
 ALPHA OCC:  57
 BETA  OCC:  57
 
 ***HARTREE-FOCK ENERGY IN STEP   8 IS       -876.0169261407286285 [AU]
 
 Step comparison  Energy Drift [au]  DIIS error drift  Gradient drift
        7            6.5492E-05         2.8762E-05       3.0984E-03
 ======================================================================
 ITERATION STEP   9
 CPU time [min]:     3.709                   Wall time [min]:     0.109
 

 SCF control                  : diis
 Damping factor/level shift   : 0.000/0.000
 DIIS [start/end/frequency]   :   2 / 50 /  1

 Constructing Fock-matrix...
 
 Pipek-Mezey localization...
 Step  Convergence
   1  24.157055887627
   2   7.705830804698
   3  16.164970318140
   4   6.136698570637
   5   1.415658049816
   6   0.035209812278
   7   0.002916541477
   8   0.000243835014
   9   0.000040474423
  10   0.000006622612
  11   0.000001296377
  12   0.000000253940
  13   0.000000052248
  14   0.000000010575
  15   0.000000002223
  16   0.000000000463
  17   0.000000000104
  18   0.000000000020
  19   0.000000000003
  20   0.000000000001
 CPU time [min]:     3.756                   Wall time [min]:     0.110
 
 Constructing local fitting domains...
 Local fitting domains are unchanged.
 
 First step of Coulomb + first step of exchange...
 Exchange contribution is evaluated for MOs 1 to 57.
   1% done.
  13% done.
  25% done.
  40% done.
  55% done.
  70% done.
  83% done.
 100% done.
 CPU time [min]:     4.040                   Wall time [min]:     0.118
 
 Fitting and assembly step of exchange...
 CPU time [min]:     4.070                   Wall time [min]:     0.119
 
 Second step of Coulomb...
   1% done.
  13% done.
  25% done.
  40% done.
  55% done.
  70% done.
  83% done.
 100% done.
 CPU time [min]:     4.143                   Wall time [min]:     0.121
 
 Gradient norm:      1.9539E-03
 DIIS is running in this iteration step.
 RMS of [F,P]:                                         0.00000989467921
 RMS of difference density:                            0.00008136711808
 Gap [au]:  0.14028344
 ALPHA OCC:  57
 BETA  OCC:  57
 
 ***HARTREE-FOCK ENERGY IN STEP   9 IS       -876.0169383616762389 [AU]
 
 Step comparison  Energy Drift [au]  DIIS error drift  Gradient drift
        8            1.2221E-05         9.6839E-06       1.7484E-03
 ======================================================================
 ITERATION STEP  10
 CPU time [min]:     4.157                   Wall time [min]:     0.122
 

 SCF control                  : diis
 Damping factor/level shift   : 0.000/0.000
 DIIS [start/end/frequency]   :   2 / 50 /  1

 Constructing Fock-matrix...
 
 Pipek-Mezey localization...
 Step  Convergence
   1  26.080579391305
   2   9.649458852344
   3  15.301639686111
   4   7.148285505397
   5   1.861658113637
   6   0.125866253967
   7   0.005530301528
   8   0.000766626544
   9   0.000121495160
  10   0.000018775544
  11   0.000002948517
  12   0.000000464604
  13   0.000000073605
  14   0.000000011685
  15   0.000000001867
  16   0.000000000300
  17   0.000000000048
  18   0.000000000008
  19   0.000000000001
  20   0.000000000000
 CPU time [min]:     4.204                   Wall time [min]:     0.123
 
 Constructing local fitting domains...
 Local fitting domains are unchanged.
 
 First step of Coulomb + first step of exchange...
 Exchange contribution is evaluated for MOs 1 to 57.
   1% done.
  13% done.
  25% done.
  40% done.
  55% done.
  70% done.
  83% done.
 100% done.
 CPU time [min]:     4.488                   Wall time [min]:     0.131
 
 Fitting and assembly step of exchange...
 CPU time [min]:     4.518                   Wall time [min]:     0.132
 
 Second step of Coulomb...
   1% done.
  13% done.
  25% done.
  40% done.
  55% done.
  70% done.
  83% done.
 100% done.
 CPU time [min]:     4.591                   Wall time [min]:     0.134
 
 Gradient norm:      2.3667E-04
 DIIS is running in this iteration step.
 RMS of [F,P]:                                         0.00000257833570
 RMS of difference density:                            0.00001287290561
 Gap [au]:  0.14026335
 ALPHA OCC:  57
 BETA  OCC:  57
 
 ***HARTREE-FOCK ENERGY IN STEP  10 IS       -876.0169419924141039 [AU]
 
 Step comparison  Energy Drift [au]  DIIS error drift  Gradient drift
        9            3.6307E-06         7.3163E-06       1.7172E-03
 ======================================================================
 ITERATION STEP  11
 CPU time [min]:     4.605                   Wall time [min]:     0.134
 

 SCF control                  : diis
 Damping factor/level shift   : 0.000/0.000
 DIIS [start/end/frequency]   :   2 / 50 /  1

 Constructing Fock-matrix...
 
 Pipek-Mezey localization...
 Step  Convergence
   1  24.268526023282
   2   8.177490436933
   3  13.603838647619
   4   5.809632509463
   5   1.719939675793
   6   0.205997233002
   7   0.021169189525
   8   0.003518788774
   9   0.000583856146
  10   0.000080934162
  11   0.000017606194
  12   0.000002607518
  13   0.000000399509
  14   0.000000061180
  15   0.000000009407
  16   0.000000001307
  17   0.000000000274
  18   0.000000000036
  19   0.000000000008
  20   0.000000000001
  21   0.000000000000
 CPU time [min]:     4.653                   Wall time [min]:     0.135
 
 Constructing local fitting domains...
 Local fitting domains are unchanged.
 
 First step of Coulomb + first step of exchange...
 Exchange contribution is evaluated for MOs 1 to 57.
   1% done.
  13% done.
  25% done.
  40% done.
  55% done.
  70% done.
  83% done.
 100% done.
 CPU time [min]:     4.937                   Wall time [min]:     0.143
 
 Fitting and assembly step of exchange...
 CPU time [min]:     4.967                   Wall time [min]:     0.144
 
 Second step of Coulomb...
   1% done.
  13% done.
  25% done.
  40% done.
  55% done.
  70% done.
  83% done.
 100% done.
 CPU time [min]:     5.040                   Wall time [min]:     0.146
 
 Gradient norm:      7.3020E-05
 DIIS is running in this iteration step.
 RMS of [F,P]:                                         0.00000083129869
 RMS of difference density:                            0.00000394513034
 Gap [au]:  0.14027077
 ALPHA OCC:  57
 BETA  OCC:  57
 
 ***HARTREE-FOCK ENERGY IN STEP  11 IS       -876.0169421242944736 [AU]
 
 Step comparison  Energy Drift [au]  DIIS error drift  Gradient drift
       10            1.3188E-07         1.7470E-06       1.6365E-04
 ======================================================================
 ITERATION STEP  12
 CPU time [min]:     5.054                   Wall time [min]:     0.147
 

 SCF control                  : diis
 Damping factor/level shift   : 0.000/0.000
 DIIS [start/end/frequency]   :   2 / 50 /  1

 Constructing Fock-matrix...
 
 Pipek-Mezey localization...
 Step  Convergence
   1  18.851895634935
   2   9.020013850025
   3  12.280566157323
   4   6.386057483153
   5   1.728359292144
   6   0.346384656851
   7   0.008671960712
   8   0.001600549961
   9   0.000261721045
  10   0.000040094527
  11   0.000005953386
  12   0.000000877205
  13   0.000000129446
  14   0.000000019171
  15   0.000000002872
  16   0.000000000434
  17   0.000000000067
  18   0.000000000010
  19   0.000000000001
  20   0.000000000000
 CPU time [min]:     5.100                   Wall time [min]:     0.148
 
 Constructing local fitting domains...
 Local fitting domains are unchanged.
 
 First step of Coulomb + first step of exchange...
 Exchange contribution is evaluated for MOs 1 to 57.
   1% done.
  13% done.
  25% done.
  40% done.
  55% done.
  70% done.
  83% done.
 100% done.
 CPU time [min]:     5.384                   Wall time [min]:     0.156
 
 Fitting and assembly step of exchange...
 CPU time [min]:     5.414                   Wall time [min]:     0.157
 
 Second step of Coulomb...
   1% done.
  13% done.
  25% done.
  40% done.
  55% done.
  70% done.
  83% done.
 100% done.
 CPU time [min]:     5.487                   Wall time [min]:     0.159
 
 Gradient norm:      5.7026E-05
 DIIS is running in this iteration step.
 RMS of [F,P]:                                         0.00000054566638
 RMS of difference density:                            0.00000185651205
 Gap [au]:  0.14026930
 ALPHA OCC:  57
 BETA  OCC:  57
 
 ***HARTREE-FOCK ENERGY IN STEP  12 IS       -876.0169421498621887 [AU]
 
 Step comparison  Energy Drift [au]  DIIS error drift  Gradient drift
       11            2.5568E-08         2.8563E-07       1.5994E-05
 ======================================================================
 ITERATION STEP  13
 CPU time [min]:     5.501                   Wall time [min]:     0.159
 

 SCF control                  : diis
 Damping factor/level shift   : 0.000/0.000
 DIIS [start/end/frequency]   :   2 / 50 /  1

 Constructing Fock-matrix...
 
 Pipek-Mezey localization...
 Step  Convergence
   1  23.014848555431
   2  10.012191625586
   3  15.353426116768
   4   6.195370783930
   5   1.237802893169
   6   0.066926993216
   7   0.005238665082
   8   0.001049215120
   9   0.000182867059
  10   0.000034631967
  11   0.000006544110
  12   0.000001263816
  13   0.000000244039
  14   0.000000047605
  15   0.000000009339
  16   0.000000001855
  17   0.000000000369
  18   0.000000000074
  19   0.000000000015
  20   0.000000000003
  21   0.000000000001
 CPU time [min]:     5.550                   Wall time [min]:     0.161
 
 Constructing local fitting domains...
 Local fitting domains are unchanged.
 
 First step of Coulomb + first step of exchange...
 Exchange contribution is evaluated for MOs 1 to 57.
   1% done.
  13% done.
  25% done.
  40% done.
  55% done.
  70% done.
  83% done.
 100% done.
 CPU time [min]:     5.834                   Wall time [min]:     0.169
 
 Fitting and assembly step of exchange...
 CPU time [min]:     5.864                   Wall time [min]:     0.169
 
 Second step of Coulomb...
   1% done.
  13% done.
  25% done.
  40% done.
  55% done.
  70% done.
  83% done.
 100% done.
 CPU time [min]:     5.937                   Wall time [min]:     0.171
 
 Gradient norm:      5.3476E-05
 DIIS is running in this iteration step.
 RMS of [F,P]:                                         0.00000035937851
 RMS of difference density:                            0.00000290740258
 Gap [au]:  0.14026854
 ALPHA OCC:  57
 BETA  OCC:  57
 
 ***HARTREE-FOCK ENERGY IN STEP  13 IS       -876.0169421602217881 [AU]
 
 Step comparison  Energy Drift [au]  DIIS error drift  Gradient drift
       12            1.0360E-08         1.8629E-07       3.5499E-06
 ======================================================================
 ITERATION STEP  14
 CPU time [min]:     5.951                   Wall time [min]:     0.172
 

 SCF control                  : diis
 Damping factor/level shift   : 0.000/0.000
 DIIS [start/end/frequency]   :   2 / 50 /  1

 Constructing Fock-matrix...
 
 Pipek-Mezey localization...
 Step  Convergence
   1  20.006271108691
   2   9.381566492886
   3  14.660662352468
   4   6.626277869312
   5   0.875393378740
   6   0.102698686804
   7   0.003979851114
   8   0.000674661417
   9   0.000101243008
  10   0.000018387963
  11   0.000003361729
  12   0.000000658251
  13   0.000000129693
  14   0.000000025695
  15   0.000000005151
  16   0.000000001041
  17   0.000000000212
  18   0.000000000043
  19   0.000000000009
  20   0.000000000002
  21   0.000000000000
 CPU time [min]:     5.999                   Wall time [min]:     0.173
 
 Constructing local fitting domains...
 Local fitting domains are unchanged.
 
 First step of Coulomb + first step of exchange...
 Exchange contribution is evaluated for MOs 1 to 57.
   1% done.
  13% done.
  25% done.
  40% done.
  55% done.
  70% done.
  83% done.
 100% done.
 CPU time [min]:     6.283                   Wall time [min]:     0.181
 
 Fitting and assembly step of exchange...
 CPU time [min]:     6.313                   Wall time [min]:     0.182
 
 Second step of Coulomb...
   1% done.
  13% done.
  25% done.
  40% done.
  55% done.
  70% done.
  83% done.
 100% done.
 CPU time [min]:     6.385                   Wall time [min]:     0.184
 
 Gradient norm:      4.0146E-05
 DIIS is running in this iteration step.
 RMS of [F,P]:                                         0.00000029705813
 RMS of difference density:                            0.00000271894787
 Gap [au]:  0.14026885
 ALPHA OCC:  57
 BETA  OCC:  57
 
 ***HARTREE-FOCK ENERGY IN STEP  14 IS       -876.0169421739160498 [AU]
 
 Step comparison  Energy Drift [au]  DIIS error drift  Gradient drift
       13            1.3694E-08         6.2320E-08       1.3330E-05
 ======================================================================
 ITERATION STEP  15
 CPU time [min]:     6.399                   Wall time [min]:     0.184
 

 SCF control                  : diis
 Damping factor/level shift   : 0.000/0.000
 DIIS [start/end/frequency]   :   2 / 50 /  1

 Constructing Fock-matrix...
 
 Pipek-Mezey localization...
 Step  Convergence
   1  21.408160387108
   2   8.142204592448
   3  11.838526890458
   4   5.815399923940
   5   1.326420357060
   6   0.363410103412
   7   0.007520482792
   8   0.001245864182
   9   0.000218335655
  10   0.000042173635
  11   0.000008228884
  12   0.000001667293
  13   0.000000339775
  14   0.000000070267
  15   0.000000014587
  16   0.000000003047
  17   0.000000000639
  18   0.000000000134
  19   0.000000000028
  20   0.000000000006
  21   0.000000000001
  22   0.000000000000
 CPU time [min]:     6.449                   Wall time [min]:     0.186
 
 Constructing local fitting domains...
 Local fitting domains are unchanged.
 
 First step of Coulomb + first step of exchange...
 Exchange contribution is evaluated for MOs 1 to 57.
   1% done.
  13% done.
  25% done.
  40% done.
  55% done.
  70% done.
  83% done.
 100% done.
 CPU time [min]:     6.732                   Wall time [min]:     0.194
 
 Fitting and assembly step of exchange...
 CPU time [min]:     6.762                   Wall time [min]:     0.194
 
 Second step of Coulomb...
   1% done.
  13% done.
  25% done.
  40% done.
  55% done.
  70% done.
  83% done.
 100% done.
 CPU time [min]:     6.835                   Wall time [min]:     0.197
 
 Gradient norm:      3.0990E-05
 DIIS is running in this iteration step.
 RMS of [F,P]:                                         0.00000021010200
 RMS of difference density:                            0.00000375502169
 Gap [au]:  0.14026839
 ALPHA OCC:  57
 BETA  OCC:  57
 
 ***HARTREE-FOCK ENERGY IN STEP  15 IS       -876.0169421839336792 [AU]
 
 Step comparison  Energy Drift [au]  DIIS error drift  Gradient drift
       14            1.0018E-08         8.6956E-08       9.1560E-06
 ======================================================================
 ITERATION STEP  16
 CPU time [min]:     6.849                   Wall time [min]:     0.197
 

 SCF control                  : diis
 Damping factor/level shift   : 0.000/0.000
 DIIS [start/end/frequency]   :   2 / 50 /  1

 Constructing Fock-matrix...
 
 Pipek-Mezey localization...
 Step  Convergence
   1  21.633991796801
   2   8.906833084284
   3  12.220171170191
   4   3.966384944292
   5   0.812220734850
   6   0.017532172563
   7   0.001180920782
   8   0.000177514528
   9   0.000025723355
  10   0.000003991598
  11   0.000000619013
  12   0.000000106652
  13   0.000000019403
  14   0.000000003902
  15   0.000000000826
  16   0.000000000185
  17   0.000000000043
  18   0.000000000010
  19   0.000000000002
  20   0.000000000001
 CPU time [min]:     6.896                   Wall time [min]:     0.198
 
 Constructing local fitting domains...
 Local fitting domains are unchanged.
 
 First step of Coulomb + first step of exchange...
 Exchange contribution is evaluated for MOs 1 to 57.
   1% done.
  13% done.
  25% done.
  40% done.
  55% done.
  70% done.
  83% done.
 100% done.
 CPU time [min]:     7.179                   Wall time [min]:     0.206
 
 Fitting and assembly step of exchange...
 CPU time [min]:     7.209                   Wall time [min]:     0.207
 
 Second step of Coulomb...
   1% done.
  13% done.
  25% done.
  40% done.
  55% done.
  70% done.
  83% done.
 100% done.
 CPU time [min]:     7.282                   Wall time [min]:     0.209
 
 Gradient norm:      1.3784E-05
 DIIS is running in this iteration step.
 RMS of [F,P]:                                         0.00000012729356
 RMS of difference density:                            0.00000326264323
 Gap [au]:  0.14026867
 ALPHA OCC:  57
 BETA  OCC:  57
 
 ***HARTREE-FOCK ENERGY IN STEP  16 IS       -876.0169421926202631 [AU]
 
 Step comparison  Energy Drift [au]  DIIS error drift  Gradient drift
       15            8.6866E-09         8.2808E-08       1.7206E-05
 ======================================================================
 ITERATION STEP  17
 CPU time [min]:     7.296                   Wall time [min]:     0.209
 

 SCF control                  : diis
 Damping factor/level shift   : 0.000/0.000
 DIIS [start/end/frequency]   :   2 / 50 /  1

 Constructing Fock-matrix...
 
 Pipek-Mezey localization...
 Step  Convergence
   1  19.994237885255
   2   8.039696733074
   3  13.940280630352
   4   5.079369338123
   5   1.015871990036
   6   0.018070336089
   7   0.002024419617
   8   0.000205170054
   9   0.000028617741
  10   0.000003686417
  11   0.000000490847
  12   0.000000065836
  13   0.000000008706
  14   0.000000001271
  15   0.000000000169
  16   0.000000000024
  17   0.000000000003
  18   0.000000000000
 CPU time [min]:     7.340                   Wall time [min]:     0.211
 
 Constructing local fitting domains...
 Local fitting domains are unchanged.
 
 First step of Coulomb + first step of exchange...
 Exchange contribution is evaluated for MOs 1 to 57.
   1% done.
  13% done.
  25% done.
  40% done.
  55% done.
  70% done.
  83% done.
 100% done.
 CPU time [min]:     7.624                   Wall time [min]:     0.219
 
 Fitting and assembly step of exchange...
 CPU time [min]:     7.653                   Wall time [min]:     0.219
 
 Second step of Coulomb...
   1% done.
  13% done.
  25% done.
  40% done.
  55% done.
  70% done.
  83% done.
 100% done.
 CPU time [min]:     7.726                   Wall time [min]:     0.222
 
 Gradient norm:      1.2566E-06
 DIIS is running in this iteration step.
 RMS of [F,P]:                                         0.00000002660241
 RMS of difference density:                            0.00000018912376
 Gap [au]:  0.14026866
 ALPHA OCC:  57
 BETA  OCC:  57
 
 ***HARTREE-FOCK ENERGY IN STEP  17 IS       -876.0169421953155506 [AU]
 
 Step comparison  Energy Drift [au]  DIIS error drift  Gradient drift
       16            2.6953E-09         1.0069E-07       1.2528E-05
 ======================================================================
 ITERATION STEP  18
 CPU time [min]:     7.741                   Wall time [min]:     0.222
 

 SCF control                  : diis
 Damping factor/level shift   : 0.000/0.000
 DIIS [start/end/frequency]   :   2 / 50 /  1

 Constructing Fock-matrix...
 
 Pipek-Mezey localization...
 Step  Convergence
   1  25.308343231550
   2   8.228782766834
   3  14.047863575852
   4   4.458857546187
   5   0.818602725286
   6   0.020448471030
   7   0.003047894923
   8   0.000489194257
   9   0.000101580167
  10   0.000020026463
  11   0.000004407928
  12   0.000000997047
  13   0.000000233218
  14   0.000000053258
  15   0.000000012712
  16   0.000000002982
  17   0.000000000711
  18   0.000000000170
  19   0.000000000040
  20   0.000000000010
  21   0.000000000002
  22   0.000000000001
 CPU time [min]:     7.790                   Wall time [min]:     0.223
 
 Constructing local fitting domains...
 Local fitting domains are unchanged.
 
 First step of Coulomb + first step of exchange...
 Exchange contribution is evaluated for MOs 1 to 57.
   1% done.
  13% done.
  25% done.
  40% done.
  55% done.
  70% done.
  83% done.
 100% done.
 CPU time [min]:     8.074                   Wall time [min]:     0.231
 
 Fitting and assembly step of exchange...
 CPU time [min]:     8.104                   Wall time [min]:     0.232
 
 Second step of Coulomb...
   1% done.
  13% done.
  25% done.
  40% done.
  55% done.
  70% done.
  83% done.
 100% done.
 CPU time [min]:     8.177                   Wall time [min]:     0.234
 
 Gradient norm:      7.7688E-07
 DIIS is running in this iteration step.
 RMS of [F,P]:                                         0.00000001533943
 RMS of difference density:                            0.00000012031972
 Gap [au]:  0.14026870
 ALPHA OCC:  57
 BETA  OCC:  57
 
 ***HARTREE-FOCK ENERGY IN STEP  18 IS       -876.0169421953387427 [AU]
 
 Step comparison  Energy Drift [au]  DIIS error drift  Gradient drift
       17            2.3192E-11         1.1263E-08       4.7968E-07
 ======================================================================
 ITERATION STEP  19
 CPU time [min]:     8.191                   Wall time [min]:     0.235
 

 SCF control                  : diis
 Damping factor/level shift   : 0.000/0.000
 DIIS [start/end/frequency]   :   2 / 50 /  1

 Constructing Fock-matrix...
 
 Pipek-Mezey localization...
 Step  Convergence
   1  23.965939921067
   2   9.263175833192
   3  11.749669911965
   4   4.357171186715
   5   0.454376685609
   6   0.006636107682
   7   0.000742911479
   8   0.000125067217
   9   0.000021006074
  10   0.000003882276
  11   0.000000730322
  12   0.000000152125
  13   0.000000032271
  14   0.000000008159
  15   0.000000002042
  16   0.000000000517
  17   0.000000000138
  18   0.000000000037
  19   0.000000000010
  20   0.000000000003
  21   0.000000000001
 CPU time [min]:     8.239                   Wall time [min]:     0.236
 
 Constructing local fitting domains...
 Local fitting domains are unchanged.
 
 First step of Coulomb + first step of exchange...
 Exchange contribution is evaluated for MOs 1 to 57.
   1% done.
  13% done.
  25% done.
  40% done.
  55% done.
  70% done.
  83% done.
 100% done.
 CPU time [min]:     8.524                   Wall time [min]:     0.244
 
 Fitting and assembly step of exchange...
 CPU time [min]:     8.553                   Wall time [min]:     0.245
 
 Second step of Coulomb...
   1% done.
  13% done.
  25% done.
  40% done.
  55% done.
  70% done.
  83% done.
 100% done.
 CPU time [min]:     8.626                   Wall time [min]:     0.247
 
 Gradient norm:      6.8361E-07
 DIIS is running in this iteration step.
 RMS of [F,P]:                                         0.00000000726805
 RMS of difference density:                            0.00000003736338
 Gap [au]:  0.14026872
 ALPHA OCC:  57
 BETA  OCC:  57
 
 ***HARTREE-FOCK ENERGY IN STEP  19 IS       -876.0169421953451092 [AU]
 
 Step comparison  Energy Drift [au]  DIIS error drift  Gradient drift
       18            6.3665E-12         8.0714E-09       9.3277E-08
 ======================================================================
 
 SUCCESS...
 THE SCF ITERATION HAS CONVERGED!
 
                   A   
 FINAL ALPHA OCC:  57
 FINAL BETA  OCC:  57
 
 ***FINAL HARTREE-FOCK ENERGY:       -876.0169421953451092 [AU]
 
 Orbital energies [au]:
      Irrep         Alpha          Beta
    1   A         -4.372586      -4.372586
    2   A         -4.372186      -4.372186
    3   A         -4.351939      -4.351939
    4   A         -4.351844      -4.351844
    5   A         -4.348721      -4.348721
    6   A         -4.348294      -4.348294
    7   A         -2.818154      -2.818154
    8   A         -2.817759      -2.817759
    9   A         -2.815898      -2.815898
   10   A         -2.815478      -2.815478
   11   A         -2.814312      -2.814312
   12   A         -2.813896      -2.813896
   13   A         -2.798162      -2.798162
   14   A         -2.797991      -2.797991
   15   A         -2.793926      -2.793926
   16   A         -2.793720      -2.793720
   17   A         -2.792345      -2.792345
   18   A         -2.792169      -2.792169
   19   A         -2.792084      -2.792084
   20   A         -2.790684      -2.790684
   21   A         -2.790184      -2.790184
   22   A         -2.788603      -2.788603
   23   A         -2.788206      -2.788206
   24   A         -2.787930      -2.787930
   25   A         -0.567271      -0.567271
   26   A         -0.561332      -0.561332
   27   A         -0.557368      -0.557368
   28   A         -0.554851      -0.554851
   29   A         -0.546563      -0.546563
   30   A         -0.543125      -0.543125
   31   A         -0.541755      -0.541755
   32   A         -0.536951      -0.536951
   33   A         -0.536084      -0.536084
   34   A         -0.533128      -0.533128
   35   A         -0.532736      -0.532736
   36   A         -0.524001      -0.524001
   37   A         -0.521007      -0.521007
   38   A         -0.516789      -0.516789
   39   A         -0.514233      -0.514233
   40   A         -0.507365      -0.507365
   41   A         -0.504483      -0.504483
   42   A         -0.494803      -0.494803
   43   A         -0.493911      -0.493911
   44   A         -0.493196      -0.493196
   45   A         -0.493010      -0.493010
   46   A         -0.489333      -0.489333
   47   A         -0.483682      -0.483682
   48   A         -0.481386      -0.481386
   49   A         -0.481338      -0.481338
   50   A         -0.478896      -0.478896
   51   A         -0.477624      -0.477624
   52   A         -0.468287      -0.468287
   53   A         -0.464794      -0.464794
   54   A         -0.451812      -0.451812
   55   A         -0.325179      -0.325179
   56   A         -0.249426      -0.249426
   57   A         -0.167601      -0.167601
 
   58   A         -0.027332      -0.027332
   59   A          0.005598       0.005598
   60   A          0.023995       0.023995
   61   A          0.038342       0.038342
   62   A          0.040982       0.040982
   63   A          0.056659       0.056659
   64   A          0.070535       0.070535
   65   A          0.090787       0.090787
   66   A          0.093216       0.093216
   67   A          0.097198       0.097198
   68   A          0.109015       0.109015
   69   A          0.136678       0.136678
   70   A          0.147020       0.147020
   71   A          0.150081       0.150081
   72   A          0.162448       0.162448
   73   A          0.166945       0.166945
   74   A          0.168222       0.168222
   75   A          0.178026       0.178026
   76   A          0.191116       0.191116
   77   A          0.194500       0.194500
   78   A          0.204816       0.204816
   79   A          0.208668       0.208668
   80   A          0.244714       0.244714
   81   A          0.260759       0.260759
   82   A          0.291684       0.291684
   83   A          0.305743       0.305743
   84   A          0.329061       0.329061
   85   A          0.374838       0.374838
   86   A          0.408906       0.408906
   87   A          0.409920       0.409920
   88   A          0.436257       0.436257
   89   A          0.453055       0.453055
   90   A          0.458398       0.458398
   91   A          0.478523       0.478523
   92   A          0.490578       0.490578
   93   A          0.500136       0.500136
   94   A          0.519710       0.519710
   95   A          0.531543       0.531543
   96   A          0.534977       0.534977
   97   A          0.553708       0.553708
   98   A          0.566555       0.566555
   99   A          0.570455       0.570455
  100   A          0.575332       0.575332
  101   A          0.592528       0.592528
  102   A          0.599701       0.599701
  103   A          0.616653       0.616653
  104   A          0.618673       0.618673
  105   A          0.655054       0.655054
  106   A          0.655763       0.655763
  107   A          0.676559       0.676559
  108   A          0.691112       0.691112
  109   A          0.725656       0.725656
  110   A          0.739476       0.739476
  111   A          0.750457       0.750457
  112   A          0.760893       0.760893
  113   A          0.794079       0.794079
  114   A          0.794167       0.794167
  115   A          0.818438       0.818438
  116   A          0.831376       0.831376
  117   A          0.832123       0.832123
  118   A          0.839746       0.839746
  119   A          0.845681       0.845681
  120   A          0.878251       0.878251
  121   A          0.914210       0.914210
  122   A          0.939285       0.939285
  123   A          0.959181       0.959181
  124   A          1.003341       1.003341
  125   A          1.008327       1.008327
  126   A          1.022519       1.022519
  127   A          1.031124       1.031124
  128   A          1.048967       1.048967
  129   A          1.089185       1.089185
  130   A          1.207900       1.207900
  131   A          1.286194       1.286194
  132   A          1.298930       1.298930
  133   A          2.450696       2.450696
  134   A          2.466494       2.466494
  135   A          2.538284       2.538284
  136   A          2.547325       2.547325
[...]
  227    5Ag2i+6       5Ag3i-6       5Ag3i-5       5Ag3i-4       5Ag3i-3       5Ag3i-2       5Ag3i-1       5Ag3i0        5Ag3i+1       5Ag3i+2   
  228    5Ag3i+3       5Ag3i+4       5Ag3i+5       5Ag3i+6       5Ag4i-6       5Ag4i-5       5Ag4i-4       5Ag4i-3       5Ag4i-2       5Ag4i-1   
  229    5Ag4i0        5Ag4i+1       5Ag4i+2       5Ag4i+3       5Ag4i+4       5Ag4i+5       5Ag4i+6       5Ag5i-6       5Ag5i-5       5Ag5i-4   
  230    5Ag5i-3       5Ag5i-2       5Ag5i-1       5Ag5i0        5Ag5i+1       5Ag5i+2       5Ag5i+3       5Ag5i+4       5Ag5i+5       5Ag5i+6   
  231    5Ag1k-7       5Ag1k-6       5Ag1k-5       5Ag1k-4       5Ag1k-3       5Ag1k-2       5Ag1k-1       5Ag1k0        5Ag1k+1       5Ag1k+2   
  232    5Ag1k+3       5Ag1k+4       5Ag1k+5       5Ag1k+6       5Ag1k+7       5Ag2k-7       5Ag2k-6       5Ag2k-5       5Ag2k-4       5Ag2k-3   
  233    5Ag2k-2       5Ag2k-1       5Ag2k0        5Ag2k+1       5Ag2k+2       5Ag2k+3       5Ag2k+4       5Ag2k+5       5Ag2k+6       5Ag2k+7   
  234    5Ag3k-7       5Ag3k-6       5Ag3k-5       5Ag3k-4       5Ag3k-3       5Ag3k-2       5Ag3k-1       5Ag3k0        5Ag3k+1       5Ag3k+2   
  235    5Ag3k+3       5Ag3k+4       5Ag3k+5       5Ag3k+6       5Ag3k+7       5Ag4k-7       5Ag4k-6       5Ag4k-5       5Ag4k-4       5Ag4k-3   
  236    5Ag4k-2       5Ag4k-1       5Ag4k0        5Ag4k+1       5Ag4k+2       5Ag4k+3       5Ag4k+4       5Ag4k+5       5Ag4k+6       5Ag4k+7   
  237    6Ag1s         6Ag2s         6Ag3s         6Ag4s         6Ag5s         6Ag6s         6Ag7s         6Ag8s         6Ag9s         6Ag10s    
  238    6Ag11s        6Ag12s        6Ag13s        6Ag1pz        6Ag1py        6Ag1px        6Ag2pz        6Ag2py        6Ag2px        6Ag3pz    
  239    6Ag3py        6Ag3px        6Ag4pz        6Ag4py        6Ag4px        6Ag5pz        6Ag5py        6Ag5px        6Ag6pz        6Ag6py    
  240    6Ag6px        6Ag7pz        6Ag7py        6Ag7px        6Ag8pz        6Ag8py        6Ag8px        6Ag9pz        6Ag9py        6Ag9px    
  241    6Ag10pz       6Ag10py       6Ag10px       6Ag11pz       6Ag11py       6Ag11px       6Ag12pz       6Ag12py       6Ag12px       6Ag13pz   
  242    6Ag13py       6Ag13px       6Ag1d-2       6Ag1d-1       6Ag1d0        6Ag1d+1       6Ag1d+2       6Ag2d-2       6Ag2d-1       6Ag2d0    
  243    6Ag2d+1       6Ag2d+2       6Ag3d-2       6Ag3d-1       6Ag3d0        6Ag3d+1       6Ag3d+2       6Ag4d-2       6Ag4d-1       6Ag4d0    
  244    6Ag4d+1       6Ag4d+2       6Ag5d-2       6Ag5d-1       6Ag5d0        6Ag5d+1       6Ag5d+2       6Ag6d-2       6Ag6d-1       6Ag6d0    
  245    6Ag6d+1       6Ag6d+2       6Ag7d-2       6Ag7d-1       6Ag7d0        6Ag7d+1       6Ag7d+2       6Ag8d-2       6Ag8d-1       6Ag8d0    
  246    6Ag8d+1       6Ag8d+2       6Ag9d-2       6Ag9d-1       6Ag9d0        6Ag9d+1       6Ag9d+2       6Ag10d-2      6Ag10d-1      6Ag10d0   
  247    6Ag10d+1      6Ag10d+2      6Ag11d-2      6Ag11d-1      6Ag11d0       6Ag11d+1      6Ag11d+2      6Ag12d-2      6Ag12d-1      6Ag12d0   
  248    6Ag12d+1      6Ag12d+2      6Ag1f-3       6Ag1f-2       6Ag1f-1       6Ag1f0        6Ag1f+1       6Ag1f+2       6Ag1f+3       6Ag2f-3   
  249    6Ag2f-2       6Ag2f-1       6Ag2f0        6Ag2f+1       6Ag2f+2       6Ag2f+3       6Ag3f-3       6Ag3f-2       6Ag3f-1       6Ag3f0    
  250    6Ag3f+1       6Ag3f+2       6Ag3f+3       6Ag4f-3       6Ag4f-2       6Ag4f-1       6Ag4f0        6Ag4f+1       6Ag4f+2       6Ag4f+3   
  251    6Ag5f-3       6Ag5f-2       6Ag5f-1       6Ag5f0        6Ag5f+1       6Ag5f+2       6Ag5f+3       6Ag6f-3       6Ag6f-2       6Ag6f-1   
  252    6Ag6f0        6Ag6f+1       6Ag6f+2       6Ag6f+3       6Ag7f-3       6Ag7f-2       6Ag7f-1       6Ag7f0        6Ag7f+1       6Ag7f+2   
  253    6Ag7f+3       6Ag8f-3       6Ag8f-2       6Ag8f-1       6Ag8f0        6Ag8f+1       6Ag8f+2       6Ag8f+3       6Ag9f-3       6Ag9f-2   
  254    6Ag9f-1       6Ag9f0        6Ag9f+1       6Ag9f+2       6Ag9f+3       6Ag10f-3      6Ag10f-2      6Ag10f-1      6Ag10f0       6Ag10f+1  
  255    6Ag10f+2      6Ag10f+3      6Ag1g-4       6Ag1g-3       6Ag1g-2       6Ag1g-1       6Ag1g0        6Ag1g+1       6Ag1g+2       6Ag1g+3   
  256    6Ag1g+4       6Ag2g-4       6Ag2g-3       6Ag2g-2       6Ag2g-1       6Ag2g0        6Ag2g+1       6Ag2g+2       6Ag2g+3       6Ag2g+4   
  257    6Ag3g-4       6Ag3g-3       6Ag3g-2       6Ag3g-1       6Ag3g0        6Ag3g+1       6Ag3g+2       6Ag3g+3       6Ag3g+4       6Ag4g-4   
  258    6Ag4g-3       6Ag4g-2       6Ag4g-1       6Ag4g0        6Ag4g+1       6Ag4g+2       6Ag4g+3       6Ag4g+4       6Ag5g-4       6Ag5g-3   
  259    6Ag5g-2       6Ag5g-1       6Ag5g0        6Ag5g+1       6Ag5g+2       6Ag5g+3       6Ag5g+4       6Ag6g-4       6Ag6g-3       6Ag6g-2   
  260    6Ag6g-1       6Ag6g0        6Ag6g+1       6Ag6g+2       6Ag6g+3       6Ag6g+4       6Ag7g-4       6Ag7g-3       6Ag7g-2       6Ag7g-1   
  261    6Ag7g0        6Ag7g+1       6Ag7g+2       6Ag7g+3       6Ag7g+4       6Ag8g-4       6Ag8g-3       6Ag8g-2       6Ag8g-1       6Ag8g0    
  262    6Ag8g+1       6Ag8g+2       6Ag8g+3       6Ag8g+4       6Ag9g-4       6Ag9g-3       6Ag9g-2       6Ag9g-1       6Ag9g0        6Ag9g+1   
  263    6Ag9g+2       6Ag9g+3       6Ag9g+4       6Ag10g-4      6Ag10g-3      6Ag10g-2      6Ag10g-1      6Ag10g0       6Ag10g+1      6Ag10g+2  
  264    6Ag10g+3      6Ag10g+4      6Ag1h-5       6Ag1h-4       6Ag1h-3       6Ag1h-2       6Ag1h-1       6Ag1h0        6Ag1h+1       6Ag1h+2   
  265    6Ag1h+3       6Ag1h+4       6Ag1h+5       6Ag2h-5       6Ag2h-4       6Ag2h-3       6Ag2h-2       6Ag2h-1       6Ag2h0        6Ag2h+1   
  266    6Ag2h+2       6Ag2h+3       6Ag2h+4       6Ag2h+5       6Ag3h-5       6Ag3h-4       6Ag3h-3       6Ag3h-2       6Ag3h-1       6Ag3h0    
  267    6Ag3h+1       6Ag3h+2       6Ag3h+3       6Ag3h+4       6Ag3h+5       6Ag4h-5       6Ag4h-4       6Ag4h-3       6Ag4h-2       6Ag4h-1   
  268    6Ag4h0        6Ag4h+1       6Ag4h+2       6Ag4h+3       6Ag4h+4       6Ag4h+5       6Ag5h-5       6Ag5h-4       6Ag5h-3       6Ag5h-2   
  269    6Ag5h-1       6Ag5h0        6Ag5h+1       6Ag5h+2       6Ag5h+3       6Ag5h+4       6Ag5h+5       6Ag6h-5       6Ag6h-4       6Ag6h-3   
  270    6Ag6h-2       6Ag6h-1       6Ag6h0        6Ag6h+1       6Ag6h+2       6Ag6h+3       6Ag6h+4       6Ag6h+5       6Ag7h-5       6Ag7h-4   
  271    6Ag7h-3       6Ag7h-2       6Ag7h-1       6Ag7h0        6Ag7h+1       6Ag7h+2       6Ag7h+3       6Ag7h+4       6Ag7h+5       6Ag1i-6   
  272    6Ag1i-5       6Ag1i-4       6Ag1i-3       6Ag1i-2       6Ag1i-1       6Ag1i0        6Ag1i+1       6Ag1i+2       6Ag1i+3       6Ag1i+4   
  273    6Ag1i+5       6Ag1i+6       6Ag2i-6       6Ag2i-5       6Ag2i-4       6Ag2i-3       6Ag2i-2       6Ag2i-1       6Ag2i0        6Ag2i+1   
  274    6Ag2i+2       6Ag2i+3       6Ag2i+4       6Ag2i+5       6Ag2i+6       6Ag3i-6       6Ag3i-5       6Ag3i-4       6Ag3i-3       6Ag3i-2   
  275    6Ag3i-1       6Ag3i0        6Ag3i+1       6Ag3i+2       6Ag3i+3       6Ag3i+4       6Ag3i+5       6Ag3i+6       6Ag4i-6       6Ag4i-5   
  276    6Ag4i-4       6Ag4i-3       6Ag4i-2       6Ag4i-1       6Ag4i0        6Ag4i+1       6Ag4i+2       6Ag4i+3       6Ag4i+4       6Ag4i+5   
  277    6Ag4i+6       6Ag5i-6       6Ag5i-5       6Ag5i-4       6Ag5i-3       6Ag5i-2       6Ag5i-1       6Ag5i0        6Ag5i+1       6Ag5i+2   
  278    6Ag5i+3       6Ag5i+4       6Ag5i+5       6Ag5i+6       6Ag1k-7       6Ag1k-6       6Ag1k-5       6Ag1k-4       6Ag1k-3       6Ag1k-2   
  279    6Ag1k-1       6Ag1k0        6Ag1k+1       6Ag1k+2       6Ag1k+3       6Ag1k+4       6Ag1k+5       6Ag1k+6       6Ag1k+7       6Ag2k-7   
  280    6Ag2k-6       6Ag2k-5       6Ag2k-4       6Ag2k-3       6Ag2k-2       6Ag2k-1       6Ag2k0        6Ag2k+1       6Ag2k+2       6Ag2k+3   
  281    6Ag2k+4       6Ag2k+5       6Ag2k+6       6Ag2k+7       6Ag3k-7       6Ag3k-6       6Ag3k-5       6Ag3k-4       6Ag3k-3       6Ag3k-2   
  282    6Ag3k-1       6Ag3k0        6Ag3k+1       6Ag3k+2       6Ag3k+3       6Ag3k+4       6Ag3k+5       6Ag3k+6       6Ag3k+7       6Ag4k-7   
  283    6Ag4k-6       6Ag4k-5       6Ag4k-4       6Ag4k-3       6Ag4k-2       6Ag4k-1       6Ag4k0        6Ag4k+1       6Ag4k+2       6Ag4k+3   
  284    6Ag4k+4       6Ag4k+5       6Ag4k+6       6Ag4k+7   
 
 Maximum number of basis functions per shell:   90
 Total number of basis functions:   2844
 
 
 Old basis set for SCF restart
 
   1  Ag def2-svp [ 7s 6p 5d 1f | 5s 3p 2d 1f ]
   2  Ag def2-svp [ 7s 6p 5d 1f | 5s 3p 2d 1f ]
   3  Ag def2-svp [ 7s 6p 5d 1f | 5s 3p 2d 1f ]
   4  Ag def2-svp [ 7s 6p 5d 1f | 5s 3p 2d 1f ]
   5  Ag def2-svp [ 7s 6p 5d 1f | 5s 3p 2d 1f ]
   6  Ag def2-svp [ 7s 6p 5d 1f | 5s 3p 2d 1f ]
 
 Basis functions:
            1             2             3             4             5             6             7             8             9            10
    0    1Ag1s         1Ag2s         1Ag3s         1Ag4s         1Ag5s         1Ag1pz        1Ag1py        1Ag1px        1Ag2pz        1Ag2py    
    1    1Ag2px        1Ag3pz        1Ag3py        1Ag3px        1Ag1d-2       1Ag1d-1       1Ag1d0        1Ag1d+1       1Ag1d+2       1Ag2d-2   
    2    1Ag2d-1       1Ag2d0        1Ag2d+1       1Ag2d+2       1Ag1f-3       1Ag1f-2       1Ag1f-1       1Ag1f0        1Ag1f+1       1Ag1f+2   
    3    1Ag1f+3       2Ag1s         2Ag2s         2Ag3s         2Ag4s         2Ag5s         2Ag1pz        2Ag1py        2Ag1px        2Ag2pz    
    4    2Ag2py        2Ag2px        2Ag3pz        2Ag3py        2Ag3px        2Ag1d-2       2Ag1d-1       2Ag1d0        2Ag1d+1       2Ag1d+2   
    5    2Ag2d-2       2Ag2d-1       2Ag2d0        2Ag2d+1       2Ag2d+2       2Ag1f-3       2Ag1f-2       2Ag1f-1       2Ag1f0        2Ag1f+1   
    6    2Ag1f+2       2Ag1f+3       3Ag1s         3Ag2s         3Ag3s         3Ag4s         3Ag5s         3Ag1pz        3Ag1py        3Ag1px    
    7    3Ag2pz        3Ag2py        3Ag2px        3Ag3pz        3Ag3py        3Ag3px        3Ag1d-2       3Ag1d-1       3Ag1d0        3Ag1d+1   
    8    3Ag1d+2       3Ag2d-2       3Ag2d-1       3Ag2d0        3Ag2d+1       3Ag2d+2       3Ag1f-3       3Ag1f-2       3Ag1f-1       3Ag1f0    
    9    3Ag1f+1       3Ag1f+2       3Ag1f+3       4Ag1s         4Ag2s         4Ag3s         4Ag4s         4Ag5s         4Ag1pz        4Ag1py    
   10    4Ag1px        4Ag2pz        4Ag2py        4Ag2px        4Ag3pz        4Ag3py        4Ag3px        4Ag1d-2       4Ag1d-1       4Ag1d0    
   11    4Ag1d+1       4Ag1d+2       4Ag2d-2       4Ag2d-1       4Ag2d0        4Ag2d+1       4Ag2d+2       4Ag1f-3       4Ag1f-2       4Ag1f-1   
   12    4Ag1f0        4Ag1f+1       4Ag1f+2       4Ag1f+3       5Ag1s         5Ag2s         5Ag3s         5Ag4s         5Ag5s         5Ag1pz    
   13    5Ag1py        5Ag1px        5Ag2pz        5Ag2py        5Ag2px        5Ag3pz        5Ag3py        5Ag3px        5Ag1d-2       5Ag1d-1   
   14    5Ag1d0        5Ag1d+1       5Ag1d+2       5Ag2d-2       5Ag2d-1       5Ag2d0        5Ag2d+1       5Ag2d+2       5Ag1f-3       5Ag1f-2   
   15    5Ag1f-1       5Ag1f0        5Ag1f+1       5Ag1f+2       5Ag1f+3       6Ag1s         6Ag2s         6Ag3s         6Ag4s         6Ag5s     
   16    6Ag1pz        6Ag1py        6Ag1px        6Ag2pz        6Ag2py        6Ag2px        6Ag3pz        6Ag3py        6Ag3px        6Ag1d-2   
   17    6Ag1d-1       6Ag1d0        6Ag1d+1       6Ag1d+2       6Ag2d-2       6Ag2d-1       6Ag2d0        6Ag2d+1       6Ag2d+2       6Ag1f-3   
   18    6Ag1f-2       6Ag1f-1       6Ag1f0        6Ag1f+1       6Ag1f+2       6Ag1f+3   
 
 Maximum number of basis functions per shell:   90
 Total number of basis functions:    186
 
 
 Effective core potentials:
 
   1  Ag mcdhf-ecp-28        
   2  Ag mcdhf-ecp-28        
   3  Ag mcdhf-ecp-28        
   4  Ag mcdhf-ecp-28        
   5  Ag mcdhf-ecp-28        
   6  Ag mcdhf-ecp-28        
 
 Calculation of prescreening integrals...
 CPU time [min]:    52.981                   Wall time [min]:     2.115
 
 Calculation of two-center Coulomb integrals...
   1% done.
  12% done.
  23% done.
  35% done.
  47% done.
  58% done.
  69% done.
  81% done.
  96% done.
 100% done.
 CPU time [min]:    53.063                   Wall time [min]:     2.117
 
 Cholesky decomposition of the inverse of the two-center matrix...
 CPU time [min]:    53.212                   Wall time [min]:     2.121
 
 Calculation of three-center Coulomb integrals...
   1% done.
  12% done.
  25% done.
  36% done.
  49% done.
  64% done.
  75% done.
  88% done.
 100% done.
 CPU time [min]:    85.953                   Wall time [min]:     3.033

 ************************ 2023-02-04 10:40:03 *************************
 Executing drpa...

 Three-index integral transformation
 
 Allocation of 220.0 Gbytes of memory...
 Minimal memory requirement for (ai|P) and (ij|P) integrals:      231.7 MB

 Calculating (ai|P) and (ij|P) integrals...
 Number of integral batches:    1
 Occupied indices per batch:   57
 
 Transforming integrals of batch 1...
 CPU time [min]:   539.856                   Wall time [min]:    18.247
 

 Constructing MP2 natural orbitals...

 Threshold for individual occupations:     1.0000E-05
 Corresponding cummulative occupation threshold:  0.99969223  0.99968729
 Total number of virtual orbitals:    1023
 Number of virtual natural orbitals:   826  (80.74%)
 
 Transforming (ai|P) integrals to the NO basis...
 Number of integral batches:    1
 Occupied indices per batch:   57
 
 Transforming integrals of batch 1 to the NO basis...
 CPU time [min]:   759.266                   Wall time [min]:    26.294

 Calculating (ab|P) integrals...
 Minimal memory requirement for (ab|P) integrals:      142.3 MB
 Number of integral batches:    1
 Virtual indices per batch:   826

 Transforming integrals of batch 1...
 CPU time [min]:   959.381                   Wall time [min]:    34.500
 

 Constructing natural auxiliary functions...

 Threshold for eigenvalues:     1.0000E-02
 Total number of auxiliary functions:    2844
 Number of natural auxiliary functions:  2445  (85.97%)

 Transforming (ai|P) and (ij|P) integrals to the NAF basis...
 Number of integral batches:    1
 Occupied indices per batch:   57
 
 Transforming integrals of batch 1 to the NAF basis...
 CPU time [min]:  1178.937                   Wall time [min]:    42.519

 Transforming (ab|P) integrals to the NAF basis...
 Number of integral batches:    1
 Virtual indices per batch:   826

 Transforming integrals of batch 1 to the NAF basis...
 CPU time [min]:  1183.057                   Wall time [min]:    43.578
 

 Results in full basis:
 
 
 Reference energy [au]:                      -876.372499144187
 DF-MP2 singlet pair energy [au]:              -3.713892499626
 DF-MP2 triplet pair energy [au]:              -1.672540339323
 DF-SCS-MP2 correlation energy [au]:           -5.014184445992
 DF-SCS-MP2 energy [au]:                     -881.386683590178
 DF-SOS-MP2 correlation energy [au]:           -4.828060249513
 DF-SOS-MP2 energy [au]:                     -881.200559393700
 DF-MP2 correlation energy [au]:               -5.386432838949
 DF-MP2 energy [au]:                         -881.758931983135

 Results in FNO basis:
 
 
 Reference energy [au]:                      -876.372499144187
 DF-MP2 singlet pair energy [au]:              -3.703263729725
 DF-MP2 triplet pair energy [au]:              -1.670853315557
 DF-SCS-MP2 correlation energy [au]:           -5.000867580856
 DF-SCS-MP2 energy [au]:                     -881.373366725043
 DF-SOS-MP2 correlation energy [au]:           -4.814242848643
 DF-SOS-MP2 energy [au]:                     -881.186741992830
 DF-MP2 correlation energy [au]:               -5.374117045283
 DF-MP2 energy [au]:                         -881.746616189470

 Results in NAF basis:
 
 
 Reference energy [au]:                      -876.372499144187
 DF-MP2 singlet pair energy [au]:              -3.703148162003
 DF-MP2 triplet pair energy [au]:              -1.670822038027
 DF-SCS-MP2 correlation energy [au]:           -5.000718473746
 DF-SCS-MP2 energy [au]:                     -881.373217617933
 DF-SOS-MP2 correlation energy [au]:           -4.814092610604
 DF-SOS-MP2 energy [au]:                     -881.186591754791
 DF-MP2 correlation energy [au]:               -5.373970200030
 DF-MP2 energy [au]:                         -881.746469344217

 ************************ 2023-02-04 11:23:41 *************************
 Executing ccsd...

 Allocation of 220.0 Gbytes of memory...

 Direct DF-CCSD(T) calculation
 
 Convergence criterion:  1.0E-06
 
 Number of occupied/virtual/auxiliary orbitals:    57   826  2445
 106348.69 MB is the minimal memory requirement for (T)
  37485.02 MB is the minimal memory requirement for CCSD
 
 Reference energy [au]:            -876.372499144187
 T1 contribution [au]:                0.000000000000
 Same spin MP2 energy [au]:          -1.670837667425
 Opposite spin MP2 energy [au]:      -3.703205932102
 MP2 correlation energy [au]:        -5.374043599527
 Total MP2 energy [au]:            -881.746542743714
 MP2 correction [au]:                -0.012389239421
 
 
 CPU time [min]:    46.611                   Wall time [min]:    14.681
 
 Starting CCSD iterations...
 
                     Residual norm          Energy
 Iteration  1        0.736356748615     -881.238927214097
 Iteration  2        0.234842376827     -881.388014964356
 Iteration  3        0.051500340714     -881.419381445885
 Iteration  4        0.025311313361     -881.417608692061
 Iteration  5        0.010789649376     -881.412900257252
 Iteration  6        0.005218024542     -881.411911868182
 Iteration  7        0.002472224388     -881.412538353378
 Iteration  8        0.001365210144     -881.412767863617
 Iteration  9        0.000564603249     -881.412725800078
 Iteration 10        0.000291789425     -881.412709232429
 Iteration 11        0.000135751144     -881.412710971026
 Iteration 12        0.000068290014     -881.412706961140
 Iteration 13        0.000035273995     -881.412704842512
 Iteration 14        0.000025041857     -881.412707230799
 Iteration 15        0.000015334222     -881.412708401343
 Iteration 16        0.000014459007     -881.412707070816
 Iteration 17        0.000009791892     -881.412706104647
 Iteration 18        0.000007683446     -881.412706961299
 
 CCSD iteration has converged in 18 steps.
   225268.42 MB memory was utilized by CCSD
 
 T1 diagnostic:      1.749E-02            D1 diagnostic:      1.123E-01
 
 T1 contribution [au]:                                  0.000000000000
 PPL energy contribution [au]:                          0.810151538025
 Scaled PPL energy contribution [au]:                   0.811966978823

 OS-PPL energy contribution [au]:                       0.608471867330
 Scaled OS-PPL energy contribution [au]:                0.610178398324
 SS-PPL energy contribution [au]:                       0.201679670695
 Scaled SS-PPL energy contribution [au]:                0.201878773073

 Opposite spin CCSD energy [au]:                       -3.601152369479
 Same spin CCSD energy [au]:                           -1.439128465922
 CCSD correlation energy [au]:                         -5.040280835401
 CCSD correlation energy + MP2 correction [au]:        -5.052670074822
 CCSD correlation energy + MP2 + PPL corr. [au]:       -5.050854634024
 Total CCSD energy [au]:                             -881.412779979588
 Total CCSD energy + MP2 correction [au]:            -881.425169219009
 Total CCSD energy + MP2 + PPL corr. [au]:           -881.423353778211
 
 CPU time [min]: 37613.432                   Wall time [min]:  1311.786
 
 Calculation of (T) correction...
 
 
   224661.51 MB memory is utilized for (T)

 0%       25%       50%       75%       100%
 |---------|---------|