 vasp.6.3.0 20Jan22 (build Apr  1 2022 16:44:48) complex                         
 executed on        HPECrayEX_GCC date 2023.01.06  18:17:32
 running  768 mpi-ranks, with    1 threads/rank
 distrk:  each k-point on  384 cores,    2 groups
 distr:  one band on NCORE=   4 cores,   96 groups


--------------------------------------------------------------------------------------------------------


 INCAR:
   SYSTEM = MgO-rocksalt
   ISMEAR = 0
   SIGMA = 0.05
   EDIFF = 1E-6
   ALGO = ALL
   ISTART = 0
   IBRION = -1
   NSW = 0
   ISYM = 2
   GGA = PE
   IVDW = 1
   ENCUT = 520
   PREC = Accurate
   LASPH = .TRUE.
   LREAL = Auto
   ISPIN = 1
   NELM = 200
   NELMIN = 8
   NCORE = 4
   KPAR = 2
   LWAVE = .FALSE.
   LCHARG = .FALSE.

 POTCAR:    PAW_PBE Ag 02Apr2005                  
 POTCAR:    PAW_PBE Ag 02Apr2005                  
   SHA256 =  6550cfa3543261e132c169e1b98a529204624d72be14e2da2e0242bcb74a174d Ag/POTCAR             
   COPYR  = (c) Copyright 02Apr2005 Georg Kresse                                                    
   COPYR  = This file is part of the software VASP. Any use, copying, and all other rights are regul
   COPYR  = If you do not have a valid VASP license, you may not use, copy or distribute this file. 
   VRHFIN =Ag : s1 d10                                                                              
   LEXCH  = PE                                                                                      
   EATOM  =  1037.2675 eV,   76.2370 Ry                                                             
                                                                                                    
   TITEL  = PAW_PBE Ag 02Apr2005                                                                    
   LULTRA =        F    use ultrasoft PP ?                                                          
   IUNSCR =        1    unscreen: 0-lin 1-nonlin 2-no                                               
   RPACOR =    2.000    partial core radius                                                         
   POMASS =  107.868; ZVAL   =   11.000    mass and valenz                                          
   RCORE  =    2.500    outmost cutoff radius                                                       
   RWIGS  =    2.840; RWIGS  =    1.503    wigner-seitz radius (au A)                               
   ENMAX  =  249.844; ENMIN  =  187.383 eV                                                          
   ICORE  =        3    local potential                                                             
   LCOR   =        T    correct aug charges                                                         
   LPAW   =        T    paw PP                                                                      
   EAUG   =  412.496                                                                                
   DEXC   =    0.000                                                                                
   RMAX   =    2.560    core radius for proj-oper                                                   
   RAUG   =    1.300    factor for augmentation sphere                                              
   RDEP   =    2.576    radius for radial grids                                                     
   RDEPT  =    2.072    core radius for aug-charge                                                  
                                                                                                    
   Atomic configuration                                                                             
   12 entries                                                                                       
     n  l   j            E        occ.                                                              
     1  0  0.50    -25324.9161   2.0000                                                             
     2  0  0.50     -3728.5341   2.0000                                                             
     2  1  1.50     -3344.0404   6.0000                                                             
     3  0  0.50      -683.5581   2.0000                                                             
     3  1  1.50      -557.3225   6.0000                                                             
     3  2  2.50      -358.3853  10.0000                                                             
     4  0  0.50       -95.0341   2.0000                                                             
     4  1  1.50       -58.5511   6.0000                                                             
     4  2  2.50        -7.4440  10.0000                                                             
     5  0  0.50        -4.4045   1.0000                                                             
     5  1  0.50        -1.3606   0.0000                                                             
     4  3  2.50        -1.3606   0.0000                                                             
   Description                                                                                      
     l       E           TYP  RCUT    TYP  RCUT                                                     
     2     -7.4439781     23  2.400                                                                 
     2     -8.8045607     23  2.400                                                                 
     0     -4.4044681     23  2.400                                                                 
     0      1.9520038     23  2.400                                                                 
     1     -1.3605826     23  2.500                                                                 
     1     27.2116520     23  2.500                                                                 
     3     -4.0817478     23  2.400                                                                 
  local pseudopotential read in
  partial core-charges read in
  partial kinetic energy density read in
  atomic valenz-charges read in
  non local Contribution for L=           2  read in
    real space projection operators read in
  non local Contribution for L=           2  read in
    real space projection operators read in
  non local Contribution for L=           0  read in
    real space projection operators read in
  non local Contribution for L=           0  read in
    real space projection operators read in
  non local Contribution for L=           1  read in
    real space projection operators read in
  non local Contribution for L=           1  read in
    real space projection operators read in
    PAW grid and wavefunctions read in

   number of l-projection  operators is LMAX  =           6
   number of lm-projection operators is LMMAX =          18

 -----------------------------------------------------------------------------
|                                                                             |
|               ----> ADVICE to this user running VASP <----                  |
|                                                                             |
|     You have a (more or less) 'small supercell' and for smaller cells       |
|     it is recommended to use the reciprocal-space projection scheme!        |
|     The real-space optimization is not efficient for small cells and it     |
|     is also less accurate ...                                               |
|     Therefore, set LREAL=.FALSE. in the INCAR file.                         |
|                                                                             |
 -----------------------------------------------------------------------------

 Optimization of the real space projectors (new method)

 maximal supplied QI-value         = 15.12
 optimisation between [QCUT,QGAM] = [ 11.64, 23.28] = [ 37.95,151.78] Ry 
 Optimized for a Real-space Cutoff    1.45 Angstroem

   l    n(q)    QCUT    max X(q) W(low)/X(q) W(high)/X(q)  e(spline) 
   2      9    11.641    53.897    0.22E-03    0.42E-04    0.28E-06
   2      9    11.641    52.416    0.23E-03    0.44E-04    0.29E-06
   0     10    11.641   122.045    0.51E-04    0.25E-04    0.16E-06
   0     10    11.641    73.629    0.49E-04    0.24E-04    0.16E-06
   1     10    11.641    15.255    0.99E-04    0.55E-04    0.11E-06
   1     10    11.641     9.562    0.81E-04    0.47E-04    0.95E-07
  PAW_PBE Ag 02Apr2005                  :
 energy of atom  1       EATOM=-1037.2675
 kinetic energy error for atom=    0.0047 (will be added to EATOM!!)


 POSCAR: ag4
  positions in direct lattice
  velocities in cartesian coordinates
 exchange correlation table for  LEXCH =        8
   RHO(1)=    0.500       N(1)  =     2000
   RHO(2)=  100.500       N(2)  =     4000



--------------------------------------------------------------------------------------------------------


 ion  position               nearest neighbor table
   1  0.999  0.000  0.000-   2 2.58
   2  0.128  0.000  0.000-   1 2.58   3 2.68
   3  0.262  0.000  0.000-   4 2.58   2 2.68
   4  0.391  0.000  0.000-   3 2.58

  LATTYP: Found a simple cubic cell.
 ALAT       =    20.0000000000
  
  Lattice vectors:
  
 A1 = (  20.0000000000,   0.0000000000,   0.0000000000)
 A2 = (   0.0000000000,  20.0000000000,   0.0000000000)
 A3 = (   0.0000000000,   0.0000000000,  20.0000000000)


Analysis of symmetry for initial positions (statically):
=====================================================================
 Subroutine PRICEL returns:
 Original cell was already a primitive cell.
 

 Routine SETGRP: Setting up the symmetry group for a 
 simple cubic supercell.


 Subroutine GETGRP returns: Found 16 space group operations
 (whereof  8 operations were pure point group operations)
 out of a pool of 48 trial point group operations.


The static configuration has the point symmetry C_4v.
 The point group associated with its full space group is D_4h.


Analysis of symmetry for dynamics (positions and initial velocities):
=====================================================================
 Subroutine PRICEL returns:
 Original cell was already a primitive cell.
 

 Routine SETGRP: Setting up the symmetry group for a 
 simple cubic supercell.


 Subroutine GETGRP returns: Found 16 space group operations
 (whereof  8 operations were pure point group operations)
 out of a pool of 48 trial point group operations.


The dynamic configuration has the point symmetry C_4v.
 The point group associated with its full space group is D_4h.


 Subroutine INISYM returns: Found 16 space group operations
 (whereof  8 operations are pure point group operations),
 and found     1 'primitive' translations


----------------------------------------------------------------------------------------

                                     Primitive cell                                     

  volume of cell :    8000.0000

  direct lattice vectors                    reciprocal lattice vectors
    20.000000000  0.000000000  0.000000000     0.050000000  0.000000000  0.000000000
     0.000000000 20.000000000  0.000000000     0.000000000  0.050000000  0.000000000
     0.000000000  0.000000000 20.000000000     0.000000000  0.000000000  0.050000000

  length of vectors
    20.000000000 20.000000000 20.000000000     0.050000000  0.050000000  0.050000000

  position of ions in fractional coordinates (direct lattice)
     0.999240438  0.000000000  0.000000000
     0.128048018  0.000000000  0.000000000
     0.261951982  0.000000000  0.000000000
     0.390759562  0.000000000  0.000000000

  ion indices of the primitive-cell ions
   primitive index   ion index
                 1           1
                 2           2
                 3           3
                 4           4

----------------------------------------------------------------------------------------



 KPOINTS: KPOINTS created by Atomic Simulation Env

Automatic generation of k-mesh.
 Grid dimensions read from file:
 generate k-points for:    1    1    1

 Generating k-lattice:

  Cartesian coordinates                     Fractional coordinates (reciprocal lattice)
     0.050000000  0.000000000  0.000000000     1.000000000  0.000000000  0.000000000
     0.000000000  0.050000000  0.000000000     0.000000000  1.000000000  0.000000000
     0.000000000  0.000000000  0.050000000     0.000000000  0.000000000  1.000000000

  Length of vectors
     0.050000000  0.050000000  0.050000000

  Shift w.r.t. Gamma in fractional coordinates (k-lattice)
     0.000000000  0.000000000  0.000000000

 
 Subroutine IBZKPT returns following result:
 ===========================================
 
 Found      1 irreducible k-points:
 
 Following reciprocal coordinates:
            Coordinates               Weight
  0.000000  0.000000  0.000000      1.000000
 
 Following cartesian coordinates:
            Coordinates               Weight
  0.000000  0.000000  0.000000      1.000000
 


--------------------------------------------------------------------------------------------------------




 Dimension of arrays:
   k-points           NKPTS =      1   k-points in BZ     NKDIM =      1   number of bands    NBANDS=     96
   number of dos      NEDOS =    301   number of ions     NIONS =      4
   non local maximal  LDIM  =      6   non local SUM 2l+1 LMDIM =     18
   total plane-waves  NPLWV = ******
   max r-space proj   IRMAX =   5390   max aug-charges    IRDMAX=  20940
   dimension x,y,z NGX =   150 NGY =  150 NGZ =  150
   dimension x,y,z NGXF=   300 NGYF=  300 NGZF=  300
   support grid    NGXF=   300 NGYF=  300 NGZF=  300
   ions per type =               4
   NGX,Y,Z   is equivalent  to a cutoff of  12.47, 12.47, 12.47 a.u.
   NGXF,Y,Z  is equivalent  to a cutoff of  24.94, 24.94, 24.94 a.u.

 SYSTEM =  MgO-rocksalt                            
 POSCAR =  ag4                                     

 Startparameter for this run:
   NWRITE =      2    write-flag & timer
   PREC   = accura    normal or accurate (medium, high low for compatibility)
   ISTART =      0    job   : 0-new  1-cont  2-samecut
   ICHARG =      2    charge: 1-file 2-atom 10-const
   ISPIN  =      1    spin polarized calculation?
   LNONCOLLINEAR =      F non collinear calculations
   LSORBIT =      F    spin-orbit coupling
   INIWAV =      1    electr: 0-lowe 1-rand  2-diag
   LASPH  =      T    aspherical Exc in radial PAW
 Electronic Relaxation 1
   ENCUT  =  520.0 eV  38.22 Ry    6.18 a.u.  37.19 37.19 37.19*2*pi/ulx,y,z
   ENINI  =  520.0     initial cutoff
   ENAUG  =  412.5 eV  augmentation charge cutoff
   NELM   =    200;   NELMIN=  8; NELMDL= -5     # of ELM steps 
   EDIFF  = 0.1E-05   stopping-criterion for ELM
   LREAL  =      T    real-space projection
   NLSPLINE    = F    spline interpolate recip. space projectors
   LCOMPAT=      F    compatible to vasp.4.4
   GGA_COMPAT  = T    GGA compatible to vasp.4.4-vasp.4.6
   LMAXPAW     = -100 max onsite density
   LMAXMIX     =    2 max onsite mixed and CHGCAR
   VOSKOWN=      0    Vosko Wilk Nusair interpolation
   ROPT   =   -0.00025
 Ionic relaxation
   EDIFFG = 0.1E-04   stopping-criterion for IOM
   NSW    =      0    number of steps for IOM
   NBLOCK =      1;   KBLOCK =      1    inner block; outer block 
   IBRION =     -1    ionic relax: 0-MD 1-quasi-New 2-CG
   NFREE  =      0    steps in history (QN), initial steepest desc. (CG)
   ISIF   =      2    stress and relaxation
   IWAVPR =     10    prediction:  0-non 1-charg 2-wave 3-comb
   ISYM   =      2    0-nonsym 1-usesym 2-fastsym
   LCORR  =      T    Harris-Foulkes like correction to forces

   POTIM  = 0.5000    time-step for ionic-motion
   TEIN   =    0.0    initial temperature
   TEBEG  =    0.0;   TEEND  =   0.0 temperature during run
   SMASS  =  -3.00    Nose mass-parameter (am)
   estimated Nose-frequenzy (Omega)   =  0.10E-29 period in steps = 0.13E+47 mass=  -0.914E-26a.u.
   SCALEE = 1.0000    scale energy and forces
   NPACO  =    256;   APACO  = 10.0  distance and # of slots for P.C.
   PSTRESS=    0.0 pullay stress

  Mass of Ions in am
   POMASS = 107.87
  Ionic Valenz
   ZVAL   =  11.00
  Atomic Wigner-Seitz radii
   RWIGS  =  -1.00
  virtual crystal weights 
   VCA    =   1.00
   NELECT =      44.0000    total number of electrons
   NUPDOWN=      -1.0000    fix difference up-down

 DOS related values:
   EMIN   =  10.00;   EMAX   =-10.00  energy-range for DOS
   EFERMI =   0.00
   ISMEAR =     0;   SIGMA  =   0.05  broadening in eV -4-tet -1-fermi 0-gaus

 Electronic relaxation 2 (details)
   IALGO  =     58    algorithm
   LDIAG  =      T    sub-space diagonalisation (order eigenvalues)
   LSUBROT=      F    optimize rotation matrix (better conditioning)
   TURBO    =      0    0=normal 1=particle mesh
   IRESTART =      0    0=no restart 2=restart with 2 vectors
   NREBOOT  =      0    no. of reboots
   NMIN     =      0    reboot dimension
   EREF     =   0.00    reference energy to select bands
   IMIX   =      4    mixing-type and parameters
     AMIX     =   0.40;   BMIX     =  1.00
     AMIX_MAG =   1.60;   BMIX_MAG =  1.00
     AMIN     =   0.10
     WC   =   100.;   INIMIX=   1;  MIXPRE=   1;  MAXMIX= -45

 Intra band minimization:
   WEIMIN = 0.0000     energy-eigenvalue tresh-hold
   EBREAK =  0.26E-08  absolut break condition
   DEPER  =   0.30     relativ break condition  

   TIME   =   0.40     timestep for ELM

  volume/ion in A,a.u.               =    2000.00     13496.67
  Fermi-wavevector in a.u.,A,eV,Ry     =   0.288976  0.546086  1.136187  0.083507
  Thomas-Fermi vector in A             =   1.146265

 Write flags
   LWAVE        =      F    write WAVECAR
   LDOWNSAMPLE  =      F    k-point downsampling of WAVECAR
   LCHARG       =      F    write CHGCAR
   LVTOT        =      F    write LOCPOT, total local potential
   LVHAR        =      F    write LOCPOT, Hartree potential only
   LELF         =      F    write electronic localiz. function (ELF)
   LORBIT       =      0    0 simple, 1 ext, 2 COOP (PROOUT), +10 PAW based schemes


 Dipole corrections
   LMONO  =      F    monopole corrections only (constant potential shift)
   LDIPOL =      F    correct potential (dipole corrections)
   IDIPOL =      0    1-x, 2-y, 3-z, 4-all directions 
   EPSILON=  1.0000000 bulk dielectric constant

 Exchange correlation treatment:
   GGA     =    PE    GGA type
   LEXCH   =     8    internal setting for exchange type
   LIBXC   =     F    Libxc                    
   VOSKOWN =     0    Vosko Wilk Nusair interpolation
   LHFCALC =     F    Hartree Fock is set to
   LHFONE  =     F    Hartree Fock one center treatment
   AEXX    =    0.0000 exact exchange contribution

 Linear response parameters
   LEPSILON=     F    determine dielectric tensor
   LRPA    =     F    only Hartree local field effects (RPA)
   LNABLA  =     F    use nabla operator in PAW spheres
   LVEL    =     F    velocity operator in full k-point grid
   CSHIFT  =0.1000    complex shift for real part using Kramers Kronig
   OMEGAMAX=  -1.0    maximum frequency
   DEG_THRESHOLD= 0.2000000E-02 threshold for treating states as degnerate
   RTIME   =   -0.100 relaxation time in fs
  (WPLASMAI=    0.000 imaginary part of plasma frequency in eV, 0.658/RTIME)
   DFIELD  = 0.0000000 0.0000000 0.0000000 field for delta impulse in time

  Optional k-point grid parameters
   LKPOINTS_OPT  =     F    use optional k-point grid
   KPOINTS_OPT_MODE=     1    mode for optional k-point grid

 Orbital magnetization related:
   ORBITALMAG=     F  switch on orbital magnetization
   LCHIMAG   =     F  perturbation theory with respect to B field
   DQ        =  0.001000  dq finite difference perturbation B field
   LLRAUG    =     F  two centre corrections for induced B field



--------------------------------------------------------------------------------------------------------


 Static calculation
 charge density and potential will be updated during run
 non-spin polarized calculation
 Conjugate gradient for all bands (Freysoldt, et al. PRB 79, 241103 (2009))
 preconditioned conjugated gradient                                        
 perform sub-space diagonalisation
    before iterative eigenvector-optimisation
 modified Broyden-mixing scheme, WC =      100.0
 initial mixing is a Kerker type mixing with AMIX =  0.4000 and BMIX =      1.0000
 Hartree-type preconditioning will be used
 using additional bands           74
 real space projection scheme for non local part
 use partial core corrections
 no Harris-corrections to forces 
 use gradient corrections 
 use of overlap-Matrix (Vanderbilt PP)
 Gauss-broadening in eV      SIGMA  =   0.05


--------------------------------------------------------------------------------------------------------


  energy-cutoff  :      520.00
  volume of cell :     8000.00
      direct lattice vectors                 reciprocal lattice vectors
    20.000000000  0.000000000  0.000000000     0.050000000  0.000000000  0.000000000
     0.000000000 20.000000000  0.000000000     0.000000000  0.050000000  0.000000000
     0.000000000  0.000000000 20.000000000     0.000000000  0.000000000  0.050000000

  length of vectors
    20.000000000 20.000000000 20.000000000     0.050000000  0.050000000  0.050000000



 k-points in units of 2pi/SCALE and weight: KPOINTS created by Atomic Simulation Env
   0.00000000  0.00000000  0.00000000       1.000

 k-points in reciprocal lattice and weights: KPOINTS created by Atomic Simulation Env
   0.00000000  0.00000000  0.00000000       1.000

 position of ions in fractional coordinates (direct lattice) 
   0.99924044  0.00000000  0.00000000
   0.12804802  0.00000000  0.00000000
   0.26195198  0.00000000  0.00000000
   0.39075956  0.00000000  0.00000000

 position of ions in cartesian coordinates  (Angst):
  19.98480877  0.00000000  0.00000000
   2.56096035  0.00000000  0.00000000
   5.23903965  0.00000000  0.00000000
   7.81519123  0.00000000  0.00000000



--------------------------------------------------------------------------------------------------------


 k-point   1 :   0.0000 0.0000 0.0000  plane waves:  215503

 maximum and minimum number of plane-waves per node :     53900    53857

 maximum number of plane-waves:    215503
 maximum index in each direction: 
   IXMAX=   37   IYMAX=   37   IZMAX=   37
   IXMIN=  -37   IYMIN=  -37   IZMIN=  -37


 real space projection operators:
  total allocation   :       2911.22 KBytes
  max/ min on nodes  :        757.12        698.48


 parallel 3D FFT for wavefunctions:
    minimum data exchange during FFTs selected (reduces bandwidth)
 parallel 3D FFT for charge:
    minimum data exchange during FFTs selected (reduces bandwidth)


 total amount of memory used by VASP MPI-rank0   100880. kBytes
=======================================================================

   base      :      30000. kBytes
   nonlr-proj:       1289. kBytes
   fftplans  :      28354. kBytes
   grid      :      38630. kBytes
   one-center:         15. kBytes
   wavefun   :       2592. kBytes

     INWAV:  cpu time      0.0001: real time      0.0001
 Broyden mixing: mesh for mixing (old mesh)
   NGX = 75   NGY = 75   NGZ = 75
  (NGX  =300   NGY  =300   NGZ  =300)
  gives a total of 421875 points

 initial charge density was supplied:
 charge density of overlapping atoms calculated
 number of electron      44.0000000 magnetization 
 keeping initial charge density in first step


--------------------------------------------------------------------------------------------------------


 Maximum index for non-local projection operator         1466
 Maximum index for augmentation-charges          885 (set IRDMAX)


--------------------------------------------------------------------------------------------------------


 First call to EWALD:  gamma=   0.089
 Maximum number of real-space cells 3x 3x 3
 Maximum number of reciprocal cells 3x 3x 3

    FEWALD:  cpu time      0.0011: real time      0.0011


--------------------------------------- Iteration      1(   1)  ---------------------------------------


    POTLOK:  cpu time      0.1137: real time      0.1138
    SETDIJ:  cpu time      0.1765: real time      0.1766
    TRIAL :  cpu time      0.5460: real time      0.5463
    CORREC:  cpu time      0.0010: real time      0.0010
    --------------------------------------------
      LOOP:  cpu time      0.8384: real time      0.8388

 eigenvalue-minimisations  :   192
 total energy-change (2. order) : 0.3155423E+03  (-0.9621682E+03)
 number of electron      44.0000000 magnetization 
 augmentation part       44.0000000 magnetization 

 Free energy of the ion-electron system (eV)
  ---------------------------------------------------
  alpha Z        PSCENC =         1.70115614
  Ewald energy   TEWEN  =       983.64345616
  -Hartree energ DENC   =     -4948.85466115
  -exchange      EXHF   =         0.00000000
  -V(xc)+E(xc)   XCENC  =       -47.06348448
  PAW double counting   =      4013.84859731    -3829.39709692
  entropy T*S    EENTRO =        -0.03449817
  eigenvalues    EBANDS =        -7.35231537
  atomic energy  EATOM  =      4149.05112583
  ---------------------------------------------------
  free energy    TOTEN  =       315.54227936 eV

  energy without entropy =      315.57677753  energy(sigma->0) =      315.55952844


--------------------------------------------------------------------------------------------------------




--------------------------------------- Iteration      1(   2)  ---------------------------------------


    TRIAL :  cpu time      1.9134: real time      1.9135
    CORREC:  cpu time      0.0003: real time      0.0003
    --------------------------------------------
      LOOP:  cpu time      1.9179: real time      1.9212

 eigenvalue-minimisations  :   384
 total energy-change (2. order) :-0.3113049E+03  (-0.3109113E+03)
 number of electron      44.0000000 magnetization 
 augmentation part       44.0000000 magnetization 

 Free energy of the ion-electron system (eV)
  ---------------------------------------------------
  alpha Z        PSCENC =         1.70115614
  Ewald energy   TEWEN  =       983.64345616
  -Hartree energ DENC   =     -4948.85466115
  -exchange      EXHF   =         0.00000000
  -V(xc)+E(xc)   XCENC  =       -47.06348448
  PAW double counting   =      4013.84859731    -3829.39709692
  entropy T*S    EENTRO =        -0.00000000
  eigenvalues    EBANDS =      -318.69174664
  atomic energy  EATOM  =      4149.05112583
  ---------------------------------------------------
  free energy    TOTEN  =         4.23734625 eV

  energy without entropy =        4.23734625  energy(sigma->0) =        4.23734625


--------------------------------------------------------------------------------------------------------




--------------------------------------- Iteration      1(   3)  ---------------------------------------


    TRIAL :  cpu time      0.5319: real time      0.5319
    CORREC:  cpu time      0.0003: real time      0.0003
    --------------------------------------------
      LOOP:  cpu time      0.5338: real time      0.5391

 eigenvalue-minimisations  :   192
 total energy-change (2. order) :-0.9316895E+01  (-0.9316895E+01)
 number of electron      44.0000000 magnetization 
 augmentation part       44.0000000 magnetization 

 Free energy of the ion-electron system (eV)
  ---------------------------------------------------
  alpha Z        PSCENC =         1.70115614
  Ewald energy   TEWEN  =       983.64345616
  -Hartree energ DENC   =     -4948.85466115
  -exchange      EXHF   =         0.00000000
  -V(xc)+E(xc)   XCENC  =       -47.06348448
  PAW double counting   =      4013.84859731    -3829.39709692
  entropy T*S    EENTRO =        -0.00000000
  eigenvalues    EBANDS =      -328.00864146
  atomic energy  EATOM  =      4149.05112583
  ---------------------------------------------------
  free energy    TOTEN  =        -5.07954857 eV

  energy without entropy =       -5.07954857  energy(sigma->0) =       -5.07954857


--------------------------------------------------------------------------------------------------------




--------------------------------------- Iteration      1(   4)  ---------------------------------------


    TRIAL :  cpu time      1.8122: real time      1.8122
    CORREC:  cpu time      0.0003: real time      0.0003
    --------------------------------------------
      LOOP:  cpu time      1.8190: real time      1.8193

 eigenvalue-minimisations  :   384
 total energy-change (2. order) :-0.4198886E-01  (-0.4198886E-01)
 number of electron      44.0000000 magnetization 
 augmentation part       44.0000000 magnetization 

 Free energy of the ion-electron system (eV)
  ---------------------------------------------------
  alpha Z        PSCENC =         1.70115614
  Ewald energy   TEWEN  =       983.64345616
  -Hartree energ DENC   =     -4948.85466115
  -exchange      EXHF   =         0.00000000
  -V(xc)+E(xc)   XCENC  =       -47.06348448
  PAW double counting   =      4013.84859731    -3829.39709692
  entropy T*S    EENTRO =        -0.00000000
  eigenvalues    EBANDS =      -328.05063032
  atomic energy  EATOM  =      4149.05112583
  ---------------------------------------------------
  free energy    TOTEN  =        -5.12153742 eV

  energy without entropy =       -5.12153742  energy(sigma->0) =       -5.12153742


--------------------------------------------------------------------------------------------------------




--------------------------------------- Iteration      1(   5)  ---------------------------------------


    TRIAL :  cpu time      0.5279: real time      0.5279
    CORREC:  cpu time      0.0003: real time      0.0003
    CHARGE:  cpu time      0.4901: real time      0.4906
    --------------------------------------------
      LOOP:  cpu time      1.0206: real time      1.0270

 eigenvalue-minimisations  :   192
 total energy-change (2. order) :-0.2689418E-05  (-0.2688702E-05)
 number of electron      43.9999983 magnetization 
 augmentation part       21.1734198 magnetization 

 Free energy of the ion-electron system (eV)
  ---------------------------------------------------
  alpha Z        PSCENC =         1.70115614
  Ewald energy   TEWEN  =       983.64345616
  -Hartree energ DENC   =     -4948.85466115
  -exchange      EXHF   =         0.00000000
  -V(xc)+E(xc)   XCENC  =       -47.06348448
  PAW double counting   =      4013.84859731    -3829.39709692
  entropy T*S    EENTRO =        -0.00000000
  eigenvalues    EBANDS =      -328.05063301
  atomic energy  EATOM  =      4149.05112583
  ---------------------------------------------------
  free energy    TOTEN  =        -5.12154011 eV

  energy without entropy =       -5.12154011  energy(sigma->0) =       -5.12154011


--------------------------------------------------------------------------------------------------------




--------------------------------------- Iteration      1(   6)  ---------------------------------------


    POTLOK:  cpu time      0.0964: real time      0.0964
    SETDIJ:  cpu time      0.1800: real time      0.1801
    TRIAL :  cpu time      1.3092: real time      1.3096
    CORREC:  cpu time      0.8357: real time      0.8358
    CHARGE:  cpu time      0.4801: real time      0.4801
    --------------------------------------------
      LOOP:  cpu time      2.9055: real time      2.9096

 eigenvalue-minimisations  :     0
 total energy-change (2. order) : 0.7336059E+00  (-0.3540334E+00)
 number of electron      43.9999983 magnetization 
 augmentation part       21.3301187 magnetization 

 Free energy of the ion-electron system (eV)
  ---------------------------------------------------
  alpha Z        PSCENC =         1.70115614
  Ewald energy   TEWEN  =       983.64345616
  -Hartree energ DENC   =     -4958.25610537
  -exchange      EXHF   =         0.00000000
  -V(xc)+E(xc)   XCENC  =       -47.41910126
  PAW double counting   =      4215.41092185    -4034.40535681
  entropy T*S    EENTRO =        -0.00000000
  eigenvalues    EBANDS =      -314.11403079
  atomic energy  EATOM  =      4149.05112583
  ---------------------------------------------------
  free energy    TOTEN  =        -4.38793426 eV

  energy without entropy =       -4.38793426  energy(sigma->0) =       -4.38793426


--------------------------------------------------------------------------------------------------------




--------------------------------------- Iteration      1(   7)  ---------------------------------------


    POTLOK:  cpu time      0.0970: real time      0.0970
    SETDIJ:  cpu time      0.1803: real time      0.1803
    TRIAL :  cpu time      0.2023: real time      0.2023
    CORREC:  cpu time      0.8310: real time      0.8311
    CHARGE:  cpu time      0.4802: real time      0.4803
    --------------------------------------------
      LOOP:  cpu time      1.7983: real time      1.7987

 eigenvalue-minimisations  :     0
 total energy-change (2. order) :-0.3534634E+00  (-0.5261366E-01)
 number of electron      43.9999983 magnetization 
 augmentation part       21.2819289 magnetization 

 Free energy of the ion-electron system (eV)
  ---------------------------------------------------
  alpha Z        PSCENC =         1.70115614
  Ewald energy   TEWEN  =       983.64345616
  -Hartree energ DENC   =     -4963.65530702
  -exchange      EXHF   =         0.00000000
  -V(xc)+E(xc)   XCENC  =       -47.01064511
  PAW double counting   =      4218.12510960    -4037.29735058
  entropy T*S    EENTRO =        -0.00000000
  eigenvalues    EBANDS =      -309.29894269
  atomic energy  EATOM  =      4149.05112583
  ---------------------------------------------------
  free energy    TOTEN  =        -4.74139769 eV

  energy without entropy =       -4.74139769  energy(sigma->0) =       -4.74139769


--------------------------------------------------------------------------------------------------------




--------------------------------------- Iteration      1(   8)  ---------------------------------------


    POTLOK:  cpu time      0.0978: real time      0.0978
    SETDIJ:  cpu time      0.1781: real time      0.1781
    TRIAL :  cpu time      0.2017: real time      0.2017
    CORREC:  cpu time      0.8302: real time      0.8302
    CHARGE:  cpu time      0.4803: real time      0.4803
    --------------------------------------------
      LOOP:  cpu time      1.7934: real time      1.7960

 eigenvalue-minimisations  :     0
 total energy-change (2. order) :-0.5241043E-01  (-0.1886808E-01)
 number of electron      43.9999983 magnetization 
 augmentation part       21.2918880 magnetization 

 Free energy of the ion-electron system (eV)
  ---------------------------------------------------
  alpha Z        PSCENC =         1.70115614
  Ewald energy   TEWEN  =       983.64345616
  -Hartree energ DENC   =     -4951.94467615
  -exchange      EXHF   =         0.00000000
  -V(xc)+E(xc)   XCENC  =       -47.28290909
  PAW double counting   =      4203.24794859    -4022.27787191
  entropy T*S    EENTRO =        -0.00000000
  eigenvalues    EBANDS =      -320.93203769
  atomic energy  EATOM  =      4149.05112583
  ---------------------------------------------------
  free energy    TOTEN  =        -4.79380812 eV

  energy without entropy =       -4.79380812  energy(sigma->0) =       -4.79380812


--------------------------------------------------------------------------------------------------------




--------------------------------------- Iteration      1(   9)  ---------------------------------------


    POTLOK:  cpu time      0.0993: real time      0.0993
    SETDIJ:  cpu time      0.1762: real time      0.1762
    TRIAL :  cpu time      0.2030: real time      0.2030
    CORREC:  cpu time      0.8310: real time      0.8310
    CHARGE:  cpu time      0.4779: real time      0.4779
    --------------------------------------------
      LOOP:  cpu time      1.7906: real time      1.7958

 eigenvalue-minimisations  :     0
 total energy-change (2. order) :-0.1878109E-01  (-0.4102974E-02)
 number of electron      43.9999983 magnetization 
 augmentation part       21.3007855 magnetization 

 Free energy of the ion-electron system (eV)
  ---------------------------------------------------
  alpha Z        PSCENC =         1.70115614
  Ewald energy   TEWEN  =       983.64345616
  -Hartree energ DENC   =     -4952.78239186
  -exchange      EXHF   =         0.00000000
  -V(xc)+E(xc)   XCENC  =       -47.23097092
  PAW double counting   =      4202.51293989    -4021.55790827
  entropy T*S    EENTRO =        -0.00000000
  eigenvalues    EBANDS =      -320.14999617
  atomic energy  EATOM  =      4149.05112583
  ---------------------------------------------------
  free energy    TOTEN  =        -4.81258920 eV

  energy without entropy =       -4.81258920  energy(sigma->0) =       -4.81258920


--------------------------------------------------------------------------------------------------------




--------------------------------------- Iteration      1(  10)  ---------------------------------------


    POTLOK:  cpu time      0.0963: real time      0.0963
    SETDIJ:  cpu time      0.1790: real time      0.1790
    TRIAL :  cpu time      0.2014: real time      0.2014
    CORREC:  cpu time      0.8263: real time      0.8263
    CHARGE:  cpu time      0.4794: real time      0.4799
    --------------------------------------------
      LOOP:  cpu time      1.7898: real time      1.7904

 eigenvalue-minimisations  :     0
 total energy-change (2. order) :-0.4096764E-02  (-0.1120366E-02)
 number of electron      43.9999983 magnetization 
 augmentation part       21.2928905 magnetization 

 Free energy of the ion-electron system (eV)
  ---------------------------------------------------
  alpha Z        PSCENC =         1.70115614
  Ewald energy   TEWEN  =       983.64345616
  -Hartree energ DENC   =     -4954.64918504
  -exchange      EXHF   =         0.00000000
  -V(xc)+E(xc)   XCENC  =       -47.19017058
  PAW double counting   =      4203.12186045    -4022.16030320
  entropy T*S    EENTRO =        -0.00000000
  eigenvalues    EBANDS =      -318.33462572
  atomic energy  EATOM  =      4149.05112583
  ---------------------------------------------------
  free energy    TOTEN  =        -4.81668597 eV

  energy without entropy =       -4.81668597  energy(sigma->0) =       -4.81668597


--------------------------------------------------------------------------------------------------------




--------------------------------------- Iteration      1(  11)  ---------------------------------------


    POTLOK:  cpu time      0.0941: real time      0.0941
    SETDIJ:  cpu time      0.1778: real time      0.1779
    TRIAL :  cpu time      0.2018: real time      0.2018
    CORREC:  cpu time      0.8289: real time      0.8289
    CHARGE:  cpu time      0.4798: real time      0.4799
    --------------------------------------------
      LOOP:  cpu time      1.7868: real time      1.7901

 eigenvalue-minimisations  :     0
 total energy-change (2. order) :-0.1124879E-02  (-0.3582338E-03)
 number of electron      43.9999983 magnetization 
 augmentation part       21.2967143 magnetization 

 Free energy of the ion-electron system (eV)
  ---------------------------------------------------
  alpha Z        PSCENC =         1.70115614
  Ewald energy   TEWEN  =       983.64345616
  -Hartree energ DENC   =     -4953.11905730
  -exchange      EXHF   =         0.00000000
  -V(xc)+E(xc)   XCENC  =       -47.23095010
  PAW double counting   =      4201.17113143    -4020.16632238
  entropy T*S    EENTRO =        -0.00000000
  eigenvalues    EBANDS =      -319.86835061
  atomic energy  EATOM  =      4149.05112583
  ---------------------------------------------------
  free energy    TOTEN  =        -4.81781085 eV

  energy without entropy =       -4.81781085  energy(sigma->0) =       -4.81781085


--------------------------------------------------------------------------------------------------------




--------------------------------------- Iteration      1(  12)  ---------------------------------------


    POTLOK:  cpu time      0.0921: real time      0.0921
    SETDIJ:  cpu time      0.1796: real time      0.1796
    TRIAL :  cpu time      0.2011: real time      0.2011
    CORREC:  cpu time      0.8266: real time      0.8266
    CHARGE:  cpu time      0.4800: real time      0.4800
    --------------------------------------------
      LOOP:  cpu time      1.7835: real time      1.7874

 eigenvalue-minimisations  :     0
 total energy-change (2. order) :-0.3556058E-03  (-0.6266623E-04)
 number of electron      43.9999983 magnetization 
 augmentation part       21.2965646 magnetization 

 Free energy of the ion-electron system (eV)
  ---------------------------------------------------
  alpha Z        PSCENC =         1.70115614
  Ewald energy   TEWEN  =       983.64345616
  -Hartree energ DENC   =     -4953.56388511
  -exchange      EXHF   =         0.00000000
  -V(xc)+E(xc)   XCENC  =       -47.21746967
  PAW double counting   =      4200.82812572    -4019.82236957
  entropy T*S    EENTRO =        -0.00000000
  eigenvalues    EBANDS =      -319.43830596
  atomic energy  EATOM  =      4149.05112583
  ---------------------------------------------------
  free energy    TOTEN  =        -4.81816645 eV

  energy without entropy =       -4.81816645  energy(sigma->0) =       -4.81816645


--------------------------------------------------------------------------------------------------------




--------------------------------------- Iteration      1(  13)  ---------------------------------------


    POTLOK:  cpu time      0.0931: real time      0.0931
    SETDIJ:  cpu time      0.1806: real time      0.1806
    TRIAL :  cpu time      0.2013: real time      0.2013
    CORREC:  cpu time      0.8240: real time      0.8240
    CHARGE:  cpu time      0.4795: real time      0.4795
    --------------------------------------------
      LOOP:  cpu time      1.7860: real time      1.7862

 eigenvalue-minimisations  :     0
 total energy-change (2. order) :-0.6295752E-04  (-0.8311463E-05)
 number of electron      43.9999983 magnetization 
 augmentation part       21.2963118 magnetization 

 Free energy of the ion-electron system (eV)
  ---------------------------------------------------
  alpha Z        PSCENC =         1.70115614
  Ewald energy   TEWEN  =       983.64345616
  -Hartree energ DENC   =     -4953.59456050
  -exchange      EXHF   =         0.00000000
  -V(xc)+E(xc)   XCENC  =       -47.21781654
  PAW double counting   =      4200.25500727    -4019.24766922
  entropy T*S    EENTRO =        -0.00000000
  eigenvalues    EBANDS =      -319.40892856
  atomic energy  EATOM  =      4149.05112583
  ---------------------------------------------------
  free energy    TOTEN  =        -4.81822941 eV

  energy without entropy =       -4.81822941  energy(sigma->0) =       -4.81822941


--------------------------------------------------------------------------------------------------------




--------------------------------------- Iteration      1(  14)  ---------------------------------------


    POTLOK:  cpu time      0.0927: real time      0.0927
    SETDIJ:  cpu time      0.1796: real time      0.1796
    TRIAL :  cpu time      0.2014: real time      0.2014
    CORREC:  cpu time      0.8251: real time      0.8252
    CHARGE:  cpu time      0.4790: real time      0.4790
    --------------------------------------------
      LOOP:  cpu time      1.7797: real time      1.7853

 eigenvalue-minimisations  :     0
 total energy-change (2. order) :-0.8477123E-05  (-0.2838181E-05)
 number of electron      43.9999983 magnetization 
 augmentation part       21.2965243 magnetization 

 Free energy of the ion-electron system (eV)
  ---------------------------------------------------
  alpha Z        PSCENC =         1.70115614
  Ewald energy   TEWEN  =       983.64345616
  -Hartree energ DENC   =     -4953.53525664
  -exchange      EXHF   =         0.00000000
  -V(xc)+E(xc)   XCENC  =       -47.21900854
  PAW double counting   =      4200.00463130    -4018.99576273
  entropy T*S    EENTRO =        -0.00000000
  eigenvalues    EBANDS =      -319.46857941
  atomic energy  EATOM  =      4149.05112583
  ---------------------------------------------------
  free energy    TOTEN  =        -4.81823789 eV

  energy without entropy =       -4.81823789  energy(sigma->0) =       -4.81823789


--------------------------------------------------------------------------------------------------------




--------------------------------------- Iteration      1(  15)  ---------------------------------------


    POTLOK:  cpu time      0.0925: real time      0.0926
    SETDIJ:  cpu time      0.1781: real time      0.1781
    TRIAL :  cpu time      0.2014: real time      0.2014
    CORREC:  cpu time      0.8254: real time      0.8254
    CHARGE:  cpu time      0.4803: real time      0.4803
    --------------------------------------------
      LOOP:  cpu time      1.7814: real time      1.7856

 eigenvalue-minimisations  :     0
 total energy-change (2. order) :-0.2740846E-05  (-0.5190394E-06)
 number of electron      43.9999983 magnetization 
 augmentation part       21.2965057 magnetization 

 Free energy of the ion-electron system (eV)
  ---------------------------------------------------
  alpha Z        PSCENC =         1.70115614
  Ewald energy   TEWEN  =       983.64345616
  -Hartree energ DENC   =     -4953.56938883
  -exchange      EXHF   =         0.00000000
  -V(xc)+E(xc)   XCENC  =       -47.21808580
  PAW double counting   =      4199.87411123    -4018.86514495
  entropy T*S    EENTRO =        -0.00000000
  eigenvalues    EBANDS =      -319.43547040
  atomic energy  EATOM  =      4149.05112583
  ---------------------------------------------------
  free energy    TOTEN  =        -4.81824063 eV

  energy without entropy =       -4.81824063  energy(sigma->0) =       -4.81824063


--------------------------------------------------------------------------------------------------------




--------------------------------------- Iteration      1(  16)  ---------------------------------------


    POTLOK:  cpu time      0.0929: real time      0.0929
    SETDIJ:  cpu time      0.1801: real time      0.1801
    TRIAL :  cpu time      0.2022: real time      0.2022
    CORREC:  cpu time      0.8264: real time      0.8268
    EDDIAG:  cpu time      0.0935: real time      0.0935
    CHARGE:  cpu time      0.4785: real time      0.4786
    --------------------------------------------
      LOOP:  cpu time      1.8770: real time      1.8820

 eigenvalue-minimisations  :     0
 total energy-change (2. order) :-0.5335587E-06  (-0.8833979E-07)
 number of electron      43.9999983 magnetization 
 augmentation part       21.2964794 magnetization 

 Free energy of the ion-electron system (eV)
  ---------------------------------------------------
  alpha Z        PSCENC =         1.70115614
  Ewald energy   TEWEN  =       983.64345616
  -Hartree energ DENC   =     -4953.56552964
  -exchange      EXHF   =         0.00000000
  -V(xc)+E(xc)   XCENC  =       -47.21811082
  PAW double counting   =      4199.78170005    -4018.77238841
  entropy T*S    EENTRO =        -0.00000000
  eigenvalues    EBANDS =      -319.43965047
  atomic energy  EATOM  =      4149.05112583
  ---------------------------------------------------
  free energy    TOTEN  =        -4.81824116 eV

  energy without entropy =       -4.81824116  energy(sigma->0) =       -4.81824116


--------------------------------------------------------------------------------------------------------


  average scaling for gradient   1.6281


 average (electrostatic) potential at core
  the test charge radii are     1.1249
  (the norm of the test charge is              1.0000)
       1 -82.2958       2 -82.1619       3 -82.1619       4 -82.2958



 E-fermi :  -4.8155     XC(G=0):  -0.3249     alpha+bet : -0.1148

 Fermi energy:        -4.8154547804

 k-point     1 :       0.0000    0.0000    0.0000
  band No.  band energies     occupation 
      1      -8.9961      2.00000
      2      -8.2320      2.00000
      3      -8.1432      2.00000
      4      -8.1432      2.00000
      5      -7.8332      2.00000
      6      -7.8332      2.00000
      7      -7.4566      2.00000
      8      -7.4566      2.00000
      9      -7.4344      2.00000
     10      -7.4343      2.00000
     11      -7.2347      2.00000
     12      -7.2347      2.00000
     13      -7.2016      2.00000
     14      -7.2016      2.00000
     15      -7.1612      2.00000
     16      -7.1026      2.00000
     17      -7.1026      2.00000
     18      -6.6916      2.00000
     19      -6.6916      2.00000
     20      -6.5046      2.00000
     21      -5.5800      2.00000
     22      -5.0511      2.00000
     23      -3.9238      0.00000
     24      -2.0669      0.00000
     25      -1.4262      0.00000
     26      -1.4262      0.00000
     27      -0.7889      0.00000
     28      -0.7889      0.00000
     29      -0.7197      0.00000
     30       0.0471      0.00000
     31       0.2053      0.00000
     32       0.2053      0.00000
     33       0.3831      0.00000
     34       0.3900      0.00000
     35       0.4187      0.00000
     36       0.4715      0.00000
     37       0.5250      0.00000
     38       0.5250      0.00000
     39       0.6900      0.00000
     40       0.7757      0.00000
     41       0.7838      0.00000
     42       0.7990      0.00000
     43       0.8011      0.00000
     44       0.8442      0.00000
     45       0.8442      0.00000
     46       0.8596      0.00000
     47       0.8596      0.00000
     48       0.8834      0.00000
     49       0.8851      0.00000
     50       0.8851      0.00000
     51       1.0457      0.00000
     52       1.1003      0.00000
     53       1.1860      0.00000
     54       1.1860      0.00000
     55       1.1997      0.00000
     56       1.2122      0.00000
     57       1.2183      0.00000
     58       1.2183      0.00000
     59       1.2373      0.00000
     60       1.3717      0.00000
     61       1.4840      0.00000
     62       1.5235      0.00000
     63       1.5235      0.00000
     64       1.5783      0.00000
     65       1.5892      0.00000
     66       1.5892      0.00000
     67       1.5901      0.00000
     68       1.6425      0.00000
     69       1.7227      0.00000
     70       1.7341      0.00000
     71       1.8242      0.00000
     72       1.8390      0.00000
     73       1.8390      0.00000
     74       1.8761      0.00000
     75       1.9056      0.00000
     76       1.9148      0.00000
     77       1.9148      0.00000
     78       1.9352      0.00000
     79       1.9367      0.00000
     80       1.9478      0.00000
     81       1.9824      0.00000
     82       1.9824      0.00000
     83       2.0143      0.00000
     84       2.0153      0.00000
     85       2.0153      0.00000
     86       2.0213      0.00000
     87       2.0511      0.00000
     88       2.0893      0.00000
     89       2.0893      0.00000
     90       2.0905      0.00000
     91       2.0905      0.00000
     92       2.1461      0.00000
     93       2.1800      0.00000
     94       2.2238      0.00000
     95       2.2412      0.00000
     96       2.2495      0.00000


--------------------------------------------------------------------------------------------------------


 soft charge-density along one line, spin component           1
         0         1         2         3         4         5         6         7         8         9
 total charge-density along one line

 pseudopotential strength for first ion, spin component:           1
-10.393  -0.000   0.000  -0.000  -0.000 -10.365  -0.000   0.000
 -0.000 -10.364  -0.000  -0.000  -0.000  -0.000 -10.338  -0.000
  0.000  -0.000 -10.376  -0.000   0.020   0.000  -0.000 -10.349
 -0.000  -0.000  -0.000 -10.393  -0.000  -0.000  -0.000  -0.000
 -0.000  -0.000   0.020  -0.000 -10.400  -0.000  -0.000   0.020
-10.365  -0.000   0.000  -0.000  -0.000 -10.313  -0.000   0.000
 -0.000 -10.338  -0.000  -0.000  -0.000  -0.000 -10.287  -0.000
  0.000  -0.000 -10.349  -0.000   0.020   0.000  -0.000 -10.298
 -0.000  -0.000  -0.000 -10.365  -0.000  -0.000  -0.000  -0.000
 -0.000  -0.000   0.020  -0.000 -10.372  -0.000  -0.000   0.019
  0.000   0.000  -0.006   0.000   0.010   0.000   0.000  -0.006
  0.000   0.000  -0.009   0.000   0.016   0.000   0.000  -0.009
 -0.036   0.000   0.000  -0.000   0.000  -0.035   0.000   0.000
 -0.000  -0.000   0.000  -0.036   0.000  -0.000  -0.000   0.000
 -0.000  -0.000   0.020   0.000  -0.034  -0.000  -0.000   0.019
 -0.044   0.000   0.000  -0.000   0.000  -0.042   0.000   0.000
 -0.000  -0.000   0.000  -0.044   0.000  -0.000  -0.000   0.000
 -0.000  -0.000   0.024   0.000  -0.041  -0.000  -0.000   0.023
 total augmentation occupancy for first ion, spin component:           1
  2.254   0.000  -0.000   0.000   0.000  -0.266   0.000   0.000   0.000   0.000   0.000   0.000  -0.016   0.000   0.000  -0.022
  0.000   2.137   0.000  -0.000   0.000   0.000  -0.075   0.000  -0.000   0.000   0.000   0.000  -0.000   0.000   0.000   0.000
 -0.000   0.000   2.239   0.000  -0.176   0.000  -0.000  -0.229   0.000   0.266   0.430  -0.059   0.000   0.000   0.065   0.000
  0.000  -0.000   0.000   2.254   0.000   0.000  -0.000  -0.000  -0.266  -0.000  -0.000  -0.000   0.000  -0.016   0.000   0.000
  0.000   0.000  -0.176   0.000   2.442  -0.000   0.000   0.266   0.000  -0.536  -0.745   0.102  -0.000   0.000  -0.113  -0.000
 -0.266   0.000   0.000   0.000  -0.000   0.270  -0.000  -0.000   0.000   0.000   0.000   0.000   0.041  -0.000  -0.000  -0.003
  0.000  -0.075  -0.000  -0.000   0.000  -0.000   0.013   0.000   0.000   0.000   0.000   0.000   0.000  -0.000   0.000   0.000
  0.000   0.000  -0.229  -0.000   0.266  -0.000   0.000   0.213   0.000  -0.348  -0.378   0.049  -0.000  -0.000  -0.093  -0.000
  0.000  -0.000   0.000  -0.266   0.000   0.000   0.000   0.000   0.270   0.000   0.000  -0.000   0.000   0.041   0.000  -0.000
  0.000   0.000   0.266  -0.000  -0.536   0.000   0.000  -0.348   0.000   0.615   0.655  -0.084  -0.000   0.000   0.161   0.000
  0.000   0.000   0.430  -0.000  -0.745   0.000   0.000  -0.378   0.000   0.655   1.454  -0.111   0.000  -0.000   0.211   0.000
  0.000   0.000  -0.059  -0.000   0.102   0.000   0.000   0.049  -0.000  -0.084  -0.111   0.013   0.000   0.000  -0.023   0.000
 -0.016  -0.000   0.000   0.000  -0.000   0.041   0.000   0.000   0.000  -0.000   0.000   0.000   0.006   0.000  -0.000  -0.001
  0.000   0.000   0.000  -0.016   0.000  -0.000  -0.000  -0.000   0.041   0.000  -0.000   0.000   0.000   0.006   0.000  -0.000
  0.000   0.000   0.065   0.000  -0.113  -0.000   0.000  -0.093   0.000   0.161   0.211  -0.023  -0.000   0.000   0.046   0.000
 -0.022   0.000   0.000   0.000  -0.000  -0.003   0.000  -0.000  -0.000   0.000   0.000   0.000  -0.001  -0.000   0.000   0.000
  0.000   0.000   0.000  -0.022   0.000   0.000   0.000  -0.000  -0.003  -0.000   0.000   0.000   0.000  -0.001  -0.000   0.000
  0.000   0.000   0.006   0.000  -0.011  -0.000   0.000   0.008   0.000  -0.014  -0.016   0.002   0.000  -0.000  -0.004   0.000


------------------------ aborting loop because EDIFF is reached ----------------------------------------


    FORLOC:  cpu time      0.0023: real time      0.0023
    FORNL :  cpu time      0.0958: real time      0.0959
    STRESS:  cpu time      0.2881: real time      0.2883
    FORCOR:  cpu time      0.0686: real time      0.0686
    OFIELD:  cpu time      0.0002: real time      0.0002

  DFT-D2 method for vdW energy calculation
  -------------------------------------------------------------------

  Parameters of vdW forcefield:
         C6(Jnm^6/mol)     R0(A)
   -----------------------------
   Ag      24.670          1.639

  vdW correction parametrized for the method pbe       

  IVDW =   1
  VDW_RADIUS =    50.000 A
  VDW_S6 =     0.750
  VDW_SR =     1.000
  VDW_D =    20.000
  LVDW_EWALD = F

  Number of pair interactions contributing to vdW energy:     730
  Edisp (eV):   -0.05025
    FORVDW:  cpu time      0.0003: real time      0.0003

  FORCE on cell =-STRESS in cart. coord.  units (eV):
  Direction    XX          YY          ZZ          XY          YZ          ZX
  --------------------------------------------------------------------------------------
  Alpha Z     1.70116     1.70116     1.70116
  Ewald    2348.22058  -682.28889  -682.28889     0.00000     0.00000     0.00000
  Hartree  3293.70134   829.93116   829.93116    -0.00000    -0.00000    -0.00000
  E(xc)    -230.29037  -232.34163  -232.34163    -0.00000     0.00000    -0.00000
  Local   -6263.99117  -792.37960  -792.37960     0.00000    -0.00000     0.00000
  n-local   -52.28737   -48.78435   -48.78435    -0.00000     0.00000     0.00000
  augment   363.11659   368.49039   368.49039     0.00000     0.00000     0.00000
  Kinetic   540.41927   555.63064   555.63065     0.00000    -0.00000    -0.00000
  Fock        0.00000     0.00000     0.00000     0.00000     0.00000     0.00000
  vdW         0.18405    -0.00036    -0.00036     0.00000    -0.00000     0.00000
  -------------------------------------------------------------------------------------
  Total       0.77409    -0.04149    -0.04149     0.00000     0.00000     0.00000
  in kB       0.15503    -0.00831    -0.00831     0.00000     0.00000     0.00000
  external pressure =        0.05 kB  Pullay stress =        0.00 kB


 VOLUME and BASIS-vectors are now :
 -----------------------------------------------------------------------------
  energy-cutoff  :      520.00
  volume of cell :     8000.00
      direct lattice vectors                 reciprocal lattice vectors
    20.000000000  0.000000000  0.000000000     0.050000000  0.000000000  0.000000000
     0.000000000 20.000000000  0.000000000     0.000000000  0.050000000  0.000000000
     0.000000000  0.000000000 20.000000000     0.000000000  0.000000000  0.050000000

  length of vectors
    20.000000000 20.000000000 20.000000000     0.050000000  0.050000000  0.050000000


 FORCES acting on ions:
    Electron-Ion                     Ewald-Force                    Non-Local-Force
 -----------------------------------------------------------------------------------------------
   0.342E+03 -.521E-15 -.173E-09   -.335E+03 -.196E-16 -.965E-17   -.674E+01 0.000E+00 -.672E-24
   0.344E+02 -.430E-15 -.658E-11   -.376E+02 -.436E-16 -.933E-16   0.321E+01 0.000E+00 -.103E-23
   -.344E+02 -.619E-14 -.248E-10   0.376E+02 0.186E-16 0.827E-18   -.321E+01 0.165E-23 0.103E-23
   -.342E+03 -.705E-14 -.748E-11   0.335E+03 -.522E-16 -.117E-16   0.674E+01 0.000E+00 0.724E-24
 -----------------------------------------------------------------------------------------------
   -.648E-11 -.174E-13 -.219E-09   0.000E+00 -.968E-16 -.114E-15   0.533E-14 0.165E-23 0.517E-25


 POSITION                                       TOTAL-FORCE (eV/Angst)
 -----------------------------------------------------------------------------------
     19.98481      0.00000      0.00000        -0.104251     -0.000000      0.000000
      2.56096      0.00000      0.00000         0.006863     -0.000000      0.000000
      5.23904      0.00000      0.00000        -0.006863      0.000000     -0.000000
      7.81519      0.00000      0.00000         0.104251     -0.000000     -0.000000
 -----------------------------------------------------------------------------------
    total drift:                               -0.000000     -0.000000     -0.000000


--------------------------------------------------------------------------------------------------------



  FREE ENERGIE OF THE ION-ELECTRON SYSTEM (eV)
  ---------------------------------------------------
  free  energy   TOTEN  =        -4.86849266 eV

  energy  without entropy=       -4.86849266  energy(sigma->0) =       -4.86849266



--------------------------------------------------------------------------------------------------------


    POTLOK:  cpu time      0.2723: real time      0.2723


--------------------------------------------------------------------------------------------------------


     LOOP+:  cpu time     27.9177: real time     27.9711
    4ORBIT:  cpu time      0.0000: real time      0.0000

 total amount of memory used by VASP MPI-rank0   100880. kBytes
=======================================================================

   base      :      30000. kBytes
   nonlr-proj:       1289. kBytes
   fftplans  :      28354. kBytes
   grid      :      38630. kBytes
   one-center:         15. kBytes
   wavefun   :       2592. kBytes

  
  
 General timing and accounting informations for this job:
 ========================================================
  
                  Total CPU time used (sec):       48.848
                            User time (sec):       47.491
                          System time (sec):        1.357
                         Elapsed time (sec):       50.622
  
                   Maximum memory used (kb):      248816.
                   Average memory used (kb):          N/A
  
                          Minor page faults:        33675
                          Major page faults:            0
                 Voluntary context switches:         9939
