 vasp.6.4.0 14Feb23 (build Jul 14 2023 13:46:40) complex                        
  
 executed on             LinuxIFC date 2023.07.29  02:57:06
 running   64 mpi-ranks, with    1 threads/rank, on    8 nodes
 distrk:  each k-point on   64 cores,    1 groups
 distr:  one band on NCORE=   1 cores,   64 groups


--------------------------------------------------------------------------------------------------------


 INCAR:
   SYSTEM = MgO-rocksalt
   ISMEAR = 0
   SIGMA = 0.05
   EDIFF = 1E-6
   ALGO = ALL
   ISTART = 0
   IBRION = -1
   NSW = 0
   ISYM = 2
   METAGGA = R2SCAN
   LUSE_VDW = .TRUE.
   BPARAM = 11.95
   CPARAM = 0.0093
   ENCUT = 520
   PREC = Accurate
   LASPH = .TRUE.
   LREAL = Auto
   ISPIN = 1
   NELM = 200
   NELMIN = 8
   NCORE = 1
   KPAR = 1
   LWAVE = .FALSE.
   LCHARG = .FALSE.

 POTCAR:    PAW_PBE Cu 22Jun2005                  
 -----------------------------------------------------------------------------
|                                                                             |
|               ----> ADVICE to this user running VASP <----                  |
|                                                                             |
|     You have switched on vdW-DFT.                                           |
|     This routine was written and supplied by Jiri Klimes. We recommend      |
|     that you carefully read and cite the following publications:            |
|       J. Klimes, D.R. Bowler, A. Michelides                                 |
|          J. Phys.: Cond Matt. 22 022201 (2010)                              |
|       J. Klimes, D.R. Bowler, A. Michelides                                 |
|          Phys. Rev. B. 83, 195131 (2011)                                    |
|     and references therein.                                                 |
|                                                                             |
 -----------------------------------------------------------------------------

 POTCAR:    PAW_PBE Cu 22Jun2005                  
   SHA256 =  0e71e558f37a4e8407882b4609ceaae59938afaad9ced71dfe8490308a0ab630 Cu/POTCAR             
   COPYR  = (c) Copyright 22Jun2005 Georg Kresse                                                    
   COPYR  = This file is part of the software VASP. Any use, copying, and all other rights are regul
   COPYR  = If you do not have a valid VASP license, you may not use, copy or distribute this file. 
   VRHFIN =Cu: d10 p1                                                                               
   LEXCH  = PE                                                                                      
   EATOM  =  1390.9808 eV,  102.2342 Ry                                                             
                                                                                                    
   TITEL  = PAW_PBE Cu 22Jun2005                                                                    
   LULTRA =        F    use ultrasoft PP ?                                                          
   IUNSCR =        1    unscreen: 0-lin 1-nonlin 2-no                                               
   RPACOR =    2.000    partial core radius                                                         
   POMASS =   63.546; ZVAL   =   11.000    mass and valenz                                          
   RCORE  =    2.300    outmost cutoff radius                                                       
   RWIGS  =    2.200; RWIGS  =    1.164    wigner-seitz radius (au A)                               
   ENMAX  =  295.446; ENMIN  =  221.585 eV                                                          
   ICORE  =        3    local potential                                                             
   LCOR   =        T    correct aug charges                                                         
   LPAW   =        T    paw PP                                                                      
   EAUG   =  586.980                                                                                
   DEXC   =    0.000                                                                                
   RMAX   =    2.344    core radius for proj-oper                                                   
   RAUG   =    1.300    factor for augmentation sphere                                              
   RDEP   =    2.302    radius for radial grids                                                     
   RDEPT  =    1.771    core radius for aug-charge                                                  
                                                                                                    
   Atomic configuration                                                                             
    9 entries                                                                                       
     n  l   j            E        occ.                                                              
     1  0  0.50     -8850.2468   2.0000                                                             
     2  0  0.50     -1062.3498   2.0000                                                             
     2  1  1.50      -916.8226   6.0000                                                             
     3  0  0.50      -114.6929   2.0000                                                             
     3  1  1.50       -72.1325   6.0000                                                             
     3  2  2.50        -5.0394  10.0000                                                             
     4  0  0.50        -4.6097   1.0000                                                             
     4  1  0.50        -4.0817   0.0000                                                             
     4  3  2.50        -1.3606   0.0000                                                             
   Description                                                                                      
     l       E           TYP  RCUT    TYP  RCUT                                                     
     2     -5.0393973     23  2.200                                                                 
     2     10.8846608     23  2.200                                                                 
     0     -4.6097109     23  2.200                                                                 
     0      8.2520465     23  2.200                                                                 
     1     -2.7211652     23  2.200                                                                 
     1     21.7055443     23  2.200                                                                 
     3      2.7211652     23  2.300                                                                 
  local pseudopotential read in
  partial core-charges read in
  partial kinetic energy density read in
  atomic valenz-charges read in
  non local Contribution for L=           2  read in
    real space projection operators read in
  non local Contribution for L=           2  read in
    real space projection operators read in
  non local Contribution for L=           0  read in
    real space projection operators read in
  non local Contribution for L=           0  read in
    real space projection operators read in
  non local Contribution for L=           1  read in
    real space projection operators read in
  non local Contribution for L=           1  read in
    real space projection operators read in
    PAW grid and wavefunctions read in
 
   number of l-projection  operators is LMAX  =           6
   number of lm-projection operators is LMMAX =          18
 
 -----------------------------------------------------------------------------
|                                                                             |
|               ----> ADVICE to this user running VASP <----                  |
|                                                                             |
|     You have a (more or less) 'small supercell' and for smaller cells       |
|     it is recommended to use the reciprocal-space projection scheme!        |
|     The real-space optimization is not efficient for small cells and it     |
|     is also less accurate ...                                               |
|     Therefore, set LREAL=.FALSE. in the INCAR file.                         |
|                                                                             |
 -----------------------------------------------------------------------------

 Optimization of the real space projectors (new method)

 maximal supplied QI-value         = 16.25
 optimisation between [QCUT,QGAM] = [ 11.54, 23.24] = [ 37.28,151.24] Ry 
 Optimized for a Real-space Cutoff    1.53 Angstroem

   l    n(q)    QCUT    max X(q) W(low)/X(q) W(high)/X(q)  e(spline) 
   2     10    11.539     4.610    0.96E-04    0.13E-03    0.19E-06
   2     10    11.539     8.522    0.16E-03    0.21E-03    0.28E-06
   0     11    11.539    51.609    0.45E-04    0.31E-04    0.11E-06
   0     11    11.539    27.747    0.39E-04    0.29E-04    0.10E-06
   1     10    11.539    20.408    0.70E-05    0.38E-04    0.18E-06
   1     10    11.539    13.425    0.66E-05    0.34E-04    0.17E-06
  PAW_PBE Cu 22Jun2005                  :
 energy of atom  1       EATOM=-1390.9808
 kinetic energy error for atom=    0.0037 (will be added to EATOM!!)
 
 
 POSCAR: Cu
  positions in direct lattice
  velocities in cartesian coordinates

 METAGGA = R2SCAN                                      LMAXTAU =  6    LMIXTAU =  F

 exchange correlation table for  LEXCH =        8
   RHO(1)=    0.500       N(1)  =     2000
   RHO(2)=  100.500       N(2)  =     4000
 


--------------------------------------------------------------------------------------------------------


 ion  position               nearest neighbor table
   1  0.545  0.391  0.410-   4 2.34   8 2.39   3 2.40
   2  0.553  0.519  0.571-   8 2.38   6 2.39   7 2.40   4 2.42   5 2.56
   3  0.447  0.421  0.472-   5 2.38   1 2.40   7 2.40   4 2.42   8 2.56
   4  0.537  0.500  0.452-   1 2.34   6 2.34   5 2.42   8 2.42   2 2.42   3 2.42
   5  0.439  0.532  0.515-   3 2.38   6 2.40   7 2.40   4 2.42   2 2.56
   6  0.528  0.608  0.495-   4 2.34   2 2.39   5 2.40
   7  0.464  0.440  0.589-   5 2.40   3 2.40   8 2.40   2 2.40
   8  0.562  0.408  0.527-   2 2.38   1 2.39   7 2.40   4 2.42   3 2.56
 
  LATTYP: Found a simple cubic cell.
 ALAT       =    20.0000000000
  
  Lattice vectors:
  
 A1 = (  20.0000000000,   0.0000000000,   0.0000000000)
 A2 = (   0.0000000000,  20.0000000000,   0.0000000000)
 A3 = (   0.0000000000,   0.0000000000,  20.0000000000)


Analysis of symmetry for initial positions (statically):
=====================================================================
 Subroutine PRICEL returns:
 Original cell was already a primitive cell.
 

 Routine SETGRP: Setting up the symmetry group for a 
 simple cubic supercell.


 Subroutine GETGRP returns: Found  1 space group operations
 (whereof  1 operations were pure point group operations)
 out of a pool of 48 trial point group operations.


The static configuration has the point symmetry C_1 .


Analysis of symmetry for dynamics (positions and initial velocities):
=====================================================================
 Subroutine PRICEL returns:
 Original cell was already a primitive cell.
 

 Routine SETGRP: Setting up the symmetry group for a 
 simple cubic supercell.


 Subroutine GETGRP returns: Found  1 space group operations
 (whereof  1 operations were pure point group operations)
 out of a pool of 48 trial point group operations.


The dynamic configuration has the point symmetry C_1 .


 Subroutine INISYM returns: Found  1 space group operations
 (whereof  1 operations are pure point group operations),
 and found     1 'primitive' translations


----------------------------------------------------------------------------------------

                                     Primitive cell                                     

  volume of cell :    8000.0000

  direct lattice vectors                    reciprocal lattice vectors
    20.000000000  0.000000000  0.000000000     0.050000000  0.000000000  0.000000000
     0.000000000 20.000000000  0.000000000     0.000000000  0.050000000  0.000000000
     0.000000000  0.000000000 20.000000000     0.000000000  0.000000000  0.050000000

  length of vectors
    20.000000000 20.000000000 20.000000000     0.050000000  0.050000000  0.050000000

  position of ions in fractional coordinates (direct lattice)
     0.545223215  0.391460490  0.409805889
     0.553173738  0.518692647  0.570707376
     0.447141995  0.421406351  0.471727016
     0.537039001  0.500166061  0.452132822
     0.438649310  0.531719611  0.515234916
     0.528485694  0.608479973  0.495418261
     0.463832486  0.440424648  0.589205898
     0.561685515  0.408420362  0.527188990

  ion indices of the primitive-cell ions
   primitive index   ion index
                 1           1
                 2           2
                 3           3
                 4           4
                 5           5
                 6           6
                 7           7
                 8           8

----------------------------------------------------------------------------------------

 
 
 KPOINTS: KPOINTS created by Atomic Simulation Env

Automatic generation of k-mesh.
 Grid dimensions read from file:
 generate k-points for:    1    1    1

 Generating k-lattice:

  Cartesian coordinates                     Fractional coordinates (reciprocal lattice)
     0.050000000  0.000000000  0.000000000     1.000000000  0.000000000  0.000000000
     0.000000000  0.050000000  0.000000000     0.000000000  1.000000000  0.000000000
     0.000000000  0.000000000  0.050000000     0.000000000  0.000000000  1.000000000

  Length of vectors
     0.050000000  0.050000000  0.050000000

  Shift w.r.t. Gamma in fractional coordinates (k-lattice)
     0.000000000  0.000000000  0.000000000

 
 Subroutine IBZKPT returns following result:
 ===========================================
 
 Found      1 irreducible k-points:
 
 Following reciprocal coordinates:
            Coordinates               Weight
  0.000000  0.000000  0.000000      1.000000
 
 Following cartesian coordinates:
            Coordinates               Weight
  0.000000  0.000000  0.000000      1.000000
 


--------------------------------------------------------------------------------------------------------




 Dimension of arrays:
   k-points           NKPTS =      1   k-points in BZ     NKDIM =      1   number of bands    NBANDS=     64
   number of dos      NEDOS =    301   number of ions     NIONS =      8
   non local maximal  LDIM  =      6   non local SUM 2l+1 LMDIM =     18
   total plane-waves  NPLWV = ******
   max r-space proj   IRMAX =   6426   max aug-charges    IRDMAX=  12418
   dimension x,y,z NGX =   150 NGY =  150 NGZ =  150
   dimension x,y,z NGXF=   300 NGYF=  300 NGZF=  300
   support grid    NGXF=   300 NGYF=  300 NGZF=  300
   ions per type =               8
   NGX,Y,Z   is equivalent  to a cutoff of  12.47, 12.47, 12.47 a.u.
   NGXF,Y,Z  is equivalent  to a cutoff of  24.94, 24.94, 24.94 a.u.

 SYSTEM =  MgO-rocksalt                            
 POSCAR =  Cu                                      

 Startparameter for this run:
   NWRITE =      2    write-flag & timer
   PREC   = accura    normal or accurate (medium, high low for compatibility)
   ISTART =      0    job   : 0-new  1-cont  2-samecut
   ICHARG =      2    charge: 1-file 2-atom 10-const
   ISPIN  =      1    spin polarized calculation?
   LNONCOLLINEAR =      F non collinear calculations
   LSORBIT =      F    spin-orbit coupling
   INIWAV =      1    electr: 0-lowe 1-rand  2-diag
   LASPH  =      T    aspherical Exc in radial PAW
 Electronic Relaxation 1
   ENCUT  =  520.0 eV  38.22 Ry    6.18 a.u.  37.19 37.19 37.19*2*pi/ulx,y,z
   ENINI  =  520.0     initial cutoff
   ENAUG  =  587.0 eV  augmentation charge cutoff
   NELM   =    200;   NELMIN=  8; NELMDL= -5     # of ELM steps 
   EDIFF  = 0.1E-05   stopping-criterion for ELM
   LREAL  =      T    real-space projection
   NLSPLINE    = F    spline interpolate recip. space projectors
   LCOMPAT=      F    compatible to vasp.4.4
   GGA_COMPAT  = T    GGA compatible to vasp.4.4-vasp.4.6
   LMAXPAW     = -100 max onsite density
   LMAXMIX     =    2 max onsite mixed and CHGCAR
   VOSKOWN=      0    Vosko Wilk Nusair interpolation
   ROPT   =   -0.00025
 Ionic relaxation
   EDIFFG = 0.1E-04   stopping-criterion for IOM
   NSW    =      0    number of steps for IOM
   NBLOCK =      1;   KBLOCK =      1    inner block; outer block 
   IBRION =     -1    ionic relax: 0-MD 1-quasi-New 2-CG
   NFREE  =      0    steps in history (QN), initial steepest desc. (CG)
   ISIF   =      2    stress and relaxation
   IWAVPR =     10    prediction:  0-non 1-charg 2-wave 3-comb
   ISYM   =      2    0-nonsym 1-usesym 2-fastsym
   LCORR  =      T    Harris-Foulkes like correction to forces

   POTIM  = 0.5000    time-step for ionic-motion
   TEIN   =    0.0    initial temperature
   TEBEG  =    0.0;   TEEND  =   0.0 temperature during run
   SMASS  =  -3.00    Nose mass-parameter (am)
   estimated Nose-frequenzy (Omega)   =  0.10E-29 period in steps = 0.13E+47 mass=  -0.914E-26a.u.
   SCALEE = 1.0000    scale energy and forces
   NPACO  =    256;   APACO  = 10.0  distance and # of slots for P.C.
   PSTRESS=    0.0 pullay stress

  Mass of Ions in am
   POMASS =  63.55
  Ionic Valenz
   ZVAL   =  11.00
  Atomic Wigner-Seitz radii
   RWIGS  =  -1.00
  virtual crystal weights 
   VCA    =   1.00
   NELECT =      88.0000    total number of electrons
   NUPDOWN=      -1.0000    fix difference up-down

 DOS related values:
   EMIN   =  10.00;   EMAX   =-10.00  energy-range for DOS
   EFERMI =   0.00;   METHOD = LEGACY      
   ISMEAR =     0;   SIGMA  =   0.05  broadening in eV -4-tet -1-fermi 0-gaus

 Electronic relaxation 2 (details)
   IALGO  =     58    algorithm
   LDIAG  =      T    sub-space diagonalisation (order eigenvalues)
   LSUBROT=      F    optimize rotation matrix (better conditioning)
   TURBO    =      0    0=normal 1=particle mesh
   IRESTART =      0    0=no restart 2=restart with 2 vectors
   NREBOOT  =      0    no. of reboots
   NMIN     =      0    reboot dimension
   EREF     =   0.00    reference energy to select bands
   IMIX   =      4    mixing-type and parameters
     AMIX     =   0.40;   BMIX     =  1.00
     AMIX_MAG =   1.60;   BMIX_MAG =  1.00
     AMIN     =   0.10
     WC   =   100.;   INIMIX=   1;  MIXPRE=   1;  MAXMIX= -45

 Intra band minimization:
   WEIMIN = 0.0000     energy-eigenvalue tresh-hold
   EBREAK =  0.39E-08  absolut break condition
   DEPER  =   0.30     relativ break condition  

   TIME   =   0.40     timestep for ELM

  volume/ion in A,a.u.               =    1000.00      6748.33
  Fermi-wavevector in a.u.,A,eV,Ry     =   0.364087  0.688026  1.803584  0.132560
  Thomas-Fermi vector in A             =   1.286639
 
 Write flags
   LWAVE        =      F    write WAVECAR
   LDOWNSAMPLE  =      F    k-point downsampling of WAVECAR
   LCHARG       =      F    write CHGCAR
   LVTOT        =      F    write LOCPOT, total local potential
   LVHAR        =      F    write LOCPOT, Hartree potential only
   LELF         =      F    write electronic localiz. function (ELF)
   LORBIT       =      0    0 simple, 1 ext, 2 COOP (PROOUT), +10 PAW based schemes


 Dipole corrections
   LMONO  =      F    monopole corrections only (constant potential shift)
   LDIPOL =      F    correct potential (dipole corrections)
   IDIPOL =      0    1-x, 2-y, 3-z, 4-all directions 
   EPSILON=  1.0000000 bulk dielectric constant

 Exchange correlation treatment:
   GGA     =    --    GGA type
   LEXCH   =     8    internal setting for exchange type
   LIBXC   =     F    Libxc                    
   VOSKOWN =     0    Vosko Wilk Nusair interpolation
   LHFCALC =     F    Hartree Fock is set to
   LHFONE  =     F    Hartree Fock one center treatment
   AEXX    =    0.0000 exact exchange contribution

 vdW DFT:
   LUSE_VDW   =     T    switch on vdW DFT
   IVDW_NL    =     2    kernel type
   LSPIN_VDW  =     F    use spin-polarized vdW DFT
   Zab_VDW    =-.8491    correlation parameter
   PARAM1     =0.1234
   PARAM2     =1.0000
   PARAM3     =0.0000
   -- rVV10 --
   BPARAM     =11.9500
   CPARAM     = 0.0093

 Linear response parameters
   LEPSILON=     F    determine dielectric tensor
   LRPA    =     F    only Hartree local field effects (RPA)
   LNABLA  =     F    use nabla operator in PAW spheres
   LVEL    =     F    velocity operator in full k-point grid
   CSHIFT  =0.1000    complex shift for real part using Kramers Kronig
   OMEGAMAX=  -1.0    maximum frequency
   DEG_THRESHOLD= 0.2000000E-02 threshold for treating states as degnerate
   RTIME   =   -0.100 relaxation time in fs
  (WPLASMAI=    0.000 imaginary part of plasma frequency in eV, 0.658/RTIME)
   DFIELD  = 0.0000000 0.0000000 0.0000000 field for delta impulse in time
 
  Optional k-point grid parameters
   LKPOINTS_OPT  =     F    use optional k-point grid
   KPOINTS_OPT_MODE=     1    mode for optional k-point grid
 
 Orbital magnetization related:
   ORBITALMAG=     F  switch on orbital magnetization
   LCHIMAG   =     F  perturbation theory with respect to B field
   DQ        =  0.001000  dq finite difference perturbation B field
   LLRAUG    =     F  two centre corrections for induced B field
   LBONE     =     F  B-component reconstruction in AE one-centre
   LVGVCALC  =     T  calculate vGv susceptibility
   LVGVAPPL  =     F  apply vGv susceptibility instead of pGv for G=0

 Random number generation:
   RANDOM_GENERATOR = DEFAULT
   PCG_SEED         = not used


--------------------------------------------------------------------------------------------------------


 Static calculation
 charge density and potential will be updated during run
 non-spin polarized calculation
 Conjugate gradient for all bands (Freysoldt, et al. PRB 79, 241103 (2009))
 preconditioned conjugated gradient                                        
 perform sub-space diagonalisation
    before iterative eigenvector-optimisation
 modified Broyden-mixing scheme, WC =      100.0
 initial mixing is a Kerker type mixing with AMIX =  0.4000 and BMIX =      1.0000
 Hartree-type preconditioning will be used
 using additional bands           20
 real space projection scheme for non local part
 use partial core corrections
 no Harris-corrections to forces 
 use gradient corrections 
 use of overlap-Matrix (Vanderbilt PP)
 Gauss-broadening in eV      SIGMA  =   0.05


--------------------------------------------------------------------------------------------------------


  energy-cutoff  :      520.00
  volume of cell :     8000.00
      direct lattice vectors                 reciprocal lattice vectors
    20.000000000  0.000000000  0.000000000     0.050000000  0.000000000  0.000000000
     0.000000000 20.000000000  0.000000000     0.000000000  0.050000000  0.000000000
     0.000000000  0.000000000 20.000000000     0.000000000  0.000000000  0.050000000

  length of vectors
    20.000000000 20.000000000 20.000000000     0.050000000  0.050000000  0.050000000


 
 k-points in units of 2pi/SCALE and weight: KPOINTS created by Atomic Simulation Env
   0.00000000  0.00000000  0.00000000       1.000
 
 k-points in reciprocal lattice and weights: KPOINTS created by Atomic Simulation Env
   0.00000000  0.00000000  0.00000000       1.000
 
 position of ions in fractional coordinates (direct lattice) 
   0.54522321  0.39146049  0.40980589
   0.55317374  0.51869265  0.57070738
   0.44714200  0.42140635  0.47172702
   0.53703900  0.50016606  0.45213282
   0.43864931  0.53171961  0.51523492
   0.52848569  0.60847997  0.49541826
   0.46383249  0.44042465  0.58920590
   0.56168552  0.40842036  0.52718899
 
 position of ions in cartesian coordinates  (Angst):
  10.90446429  7.82920980  8.19611778
  11.06347477 10.37385293 11.41414752
   8.94283991  8.42812702  9.43454031
  10.74078003 10.00332123  9.04265643
   8.77298620 10.63439221 10.30469832
  10.56971389 12.16959946  9.90836523
   9.27664973  8.80849296 11.78411796
  11.23371030  8.16840723 10.54377980
 


--------------------------------------------------------------------------------------------------------


 k-point   1 :   0.0000 0.0000 0.0000  plane waves:  215503

 maximum and minimum number of plane-waves per node :    215503   215503

 maximum number of plane-waves:    215503
 maximum index in each direction: 
   IXMAX=   37   IYMAX=   37   IZMAX=   37
   IXMIN=  -37   IYMIN=  -37   IZMIN=  -37


 serial   3D FFT for wavefunctions
 parallel 3D FFT for charge:
    minimum data exchange during FFTs selected (reduces bandwidth)


 total amount of memory used by VASP MPI-rank0   346597. kBytes
=======================================================================

   base      :      30000. kBytes
   nonlr-proj:       8719. kBytes
   fftplans  :      28721. kBytes
   grid      :     268680. kBytes
   one-center:        124. kBytes
   wavefun   :      10353. kBytes
 
     INWAV:  cpu time      0.0005: real time      0.0006
 Broyden mixing: mesh for mixing (old mesh)
   NGX = 75   NGY = 75   NGZ = 75
  (NGX  =300   NGY  =300   NGZ  =300)
  gives a total of 421875 points

 initial charge density was supplied:
 charge density of overlapping atoms calculated
 number of electron      88.0000000 magnetization 
 keeping initial charge density in first step


--------------------------------------------------------------------------------------------------------


 Maximum index for non-local projection operator         6203
 Maximum index for augmentation-charges          594 (set IRDMAX)


--------------------------------------------------------------------------------------------------------


 First call to EWALD:  gamma=   0.089
 Maximum number of real-space cells 3x 3x 3
 Maximum number of reciprocal cells 3x 3x 3

    FEWALD:  cpu time      0.0069: real time      0.0081


--------------------------------------- Ionic step        1  -------------------------------------------




--------------------------------------- Iteration      1(   1)  ---------------------------------------


    POTLOK:  cpu time     46.2074: real time     46.2534
    SETDIJ:  cpu time      3.5280: real time      3.5309
    TRIAL :  cpu time      4.5471: real time      4.6225
    CORREC:  cpu time      0.0096: real time      0.0096
    --------------------------------------------
      LOOP:  cpu time     54.2977: real time     54.4229

 eigenvalue-minimisations  :   128
 total energy-change (2. order) : 0.5098612E+03  (-0.1771767E+04)
 number of electron      88.0000000 magnetization 
 augmentation part       88.0000000 magnetization 

 Free energy of the ion-electron system (eV)
  ---------------------------------------------------
  alpha Z        PSCENC =         5.85062430
  Ewald energy   TEWEN  =      9663.91341305
  -Hartree energ DENC   =    -19798.61946212
  -exchange      EXHF   =         0.00000000
  -V(xc)+E(xc)   XCENC  =       439.53196292
  PAW double counting   =      9741.39061980   -10674.27604131
  entropy T*S    EENTRO =        -0.05211481
  eigenvalues    EBANDS =         4.30575467
  atomic energy  EATOM  =     11127.81643196
  ---------------------------------------------------
  free energy    TOTEN  =       509.86118845 eV

  energy without entropy =      509.91330326  energy(sigma->0) =      509.88724585


--------------------------------------------------------------------------------------------------------




--------------------------------------- Iteration      1(   2)  ---------------------------------------


    TRIAL :  cpu time      7.0031: real time      7.0128
    CORREC:  cpu time      0.0006: real time      0.0006
    --------------------------------------------
      LOOP:  cpu time      7.0060: real time      7.0197

 eigenvalue-minimisations  :   256
 total energy-change (2. order) :-0.5907752E+03  (-0.5899936E+03)
 number of electron      88.0000000 magnetization 
 augmentation part       88.0000000 magnetization 

 Free energy of the ion-electron system (eV)
  ---------------------------------------------------
  alpha Z        PSCENC =         5.85062430
  Ewald energy   TEWEN  =      9663.91341305
  -Hartree energ DENC   =    -19798.61946212
  -exchange      EXHF   =         0.00000000
  -V(xc)+E(xc)   XCENC  =       439.53196292
  PAW double counting   =      9741.39061980   -10674.27604131
  entropy T*S    EENTRO =        -0.00000000
  eigenvalues    EBANDS =      -586.52157012
  atomic energy  EATOM  =     11127.81643196
  ---------------------------------------------------
  free energy    TOTEN  =       -80.91402153 eV

  energy without entropy =      -80.91402153  energy(sigma->0) =      -80.91402153


--------------------------------------------------------------------------------------------------------




--------------------------------------- Iteration      1(   3)  ---------------------------------------


    TRIAL :  cpu time      4.3129: real time      4.3167
    CORREC:  cpu time      0.0006: real time      0.0006
    --------------------------------------------
      LOOP:  cpu time      4.3187: real time      4.3227

 eigenvalue-minimisations  :   128
 total energy-change (2. order) :-0.8339167E+01  (-0.8339167E+01)
 number of electron      88.0000000 magnetization 
 augmentation part       88.0000000 magnetization 

 Free energy of the ion-electron system (eV)
  ---------------------------------------------------
  alpha Z        PSCENC =         5.85062430
  Ewald energy   TEWEN  =      9663.91341305
  -Hartree energ DENC   =    -19798.61946212
  -exchange      EXHF   =         0.00000000
  -V(xc)+E(xc)   XCENC  =       439.53196292
  PAW double counting   =      9741.39061980   -10674.27604131
  entropy T*S    EENTRO =        -0.00000000
  eigenvalues    EBANDS =      -594.86073732
  atomic energy  EATOM  =     11127.81643196
  ---------------------------------------------------
  free energy    TOTEN  =       -89.25318874 eV

  energy without entropy =      -89.25318874  energy(sigma->0) =      -89.25318874


--------------------------------------------------------------------------------------------------------




--------------------------------------- Iteration      1(   4)  ---------------------------------------


    TRIAL :  cpu time      6.9406: real time      6.9478
    CORREC:  cpu time      0.0007: real time      0.0007
    --------------------------------------------
      LOOP:  cpu time      6.9429: real time      6.9539

 eigenvalue-minimisations  :   256
 total energy-change (2. order) :-0.1644782E+00  (-0.1644782E+00)
 number of electron      88.0000000 magnetization 
 augmentation part       88.0000000 magnetization 

 Free energy of the ion-electron system (eV)
  ---------------------------------------------------
  alpha Z        PSCENC =         5.85062430
  Ewald energy   TEWEN  =      9663.91341305
  -Hartree energ DENC   =    -19798.61946212
  -exchange      EXHF   =         0.00000000
  -V(xc)+E(xc)   XCENC  =       439.53196292
  PAW double counting   =      9741.39061980   -10674.27604131
  entropy T*S    EENTRO =        -0.00000000
  eigenvalues    EBANDS =      -595.02521553
  atomic energy  EATOM  =     11127.81643196
  ---------------------------------------------------
  free energy    TOTEN  =       -89.41766694 eV

  energy without entropy =      -89.41766694  energy(sigma->0) =      -89.41766694


--------------------------------------------------------------------------------------------------------




--------------------------------------- Iteration      1(   5)  ---------------------------------------


    TRIAL :  cpu time      6.9399: real time      6.9464
    CORREC:  cpu time      0.0006: real time      0.0006
    CHARGE:  cpu time      1.1497: real time      1.1511
    --------------------------------------------
      LOOP:  cpu time      8.0954: real time      8.1037

 eigenvalue-minimisations  :   256
 total energy-change (2. order) :-0.2825648E-04  (-0.2825514E-04)
 number of electron      87.9999961 magnetization 
 augmentation part       54.0886768 magnetization 

 Free energy of the ion-electron system (eV)
  ---------------------------------------------------
  alpha Z        PSCENC =         5.85062430
  Ewald energy   TEWEN  =      9663.91341305
  -Hartree energ DENC   =    -19798.61946212
  -exchange      EXHF   =         0.00000000
  -V(xc)+E(xc)   XCENC  =       439.53196292
  PAW double counting   =      9741.39061980   -10674.27604131
  entropy T*S    EENTRO =        -0.00000000
  eigenvalues    EBANDS =      -595.02524378
  atomic energy  EATOM  =     11127.81643196
  ---------------------------------------------------
  free energy    TOTEN  =       -89.41769520 eV

  energy without entropy =      -89.41769520  energy(sigma->0) =      -89.41769520


--------------------------------------------------------------------------------------------------------




--------------------------------------- Iteration      1(   6)  ---------------------------------------


    POTLOK:  cpu time     45.8278: real time     45.8652
    SETDIJ:  cpu time      3.7017: real time      3.7052
    TRIAL :  cpu time      4.1835: real time      4.2351
    CORREC:  cpu time     51.8901: real time     51.9317
    CHARGE:  cpu time      1.0976: real time      1.0984
    --------------------------------------------
      LOOP:  cpu time    106.7064: real time    106.8413

 eigenvalue-minimisations  :     0
 total energy-change (2. order) : 0.3190689E+02  (-0.1190652E+02)
 number of electron      87.9999959 magnetization 
 augmentation part       56.7873269 magnetization 

 Free energy of the ion-electron system (eV)
  ---------------------------------------------------
  alpha Z        PSCENC =         5.85062430
  Ewald energy   TEWEN  =      9663.91341305
  -Hartree energ DENC   =    -19605.46069228
  -exchange      EXHF   =         0.00000000
  -V(xc)+E(xc)   XCENC  =       425.43932864
  PAW double counting   =     10354.99544489   -11221.52338972
  entropy T*S    EENTRO =        -0.00000000
  eigenvalues    EBANDS =      -808.54197021
  atomic energy  EATOM  =     11127.81643196
  ---------------------------------------------------
  free energy    TOTEN  =       -57.51080938 eV

  energy without entropy =      -57.51080938  energy(sigma->0) =      -57.51080938


--------------------------------------------------------------------------------------------------------




--------------------------------------- Iteration      1(   7)  ---------------------------------------


    POTLOK:  cpu time     45.8605: real time     45.8972
    SETDIJ:  cpu time      3.7034: real time      3.7061
    TRIAL :  cpu time      3.9724: real time      3.9763
    CORREC:  cpu time     51.7783: real time     51.8204
    CHARGE:  cpu time      1.0873: real time      1.0887
    --------------------------------------------
      LOOP:  cpu time    106.4047: real time    106.4951

 eigenvalue-minimisations  :     0
 total energy-change (2. order) :-0.1064242E+02  (-0.1168601E+01)
 number of electron      87.9999960 magnetization 
 augmentation part       56.4666953 magnetization 

 Free energy of the ion-electron system (eV)
  ---------------------------------------------------
  alpha Z        PSCENC =         5.85062430
  Ewald energy   TEWEN  =      9663.91341305
  -Hartree energ DENC   =    -19914.12819651
  -exchange      EXHF   =         0.00000000
  -V(xc)+E(xc)   XCENC  =       439.95654999
  PAW double counting   =     10508.42015988   -11473.69559669
  entropy T*S    EENTRO =        -0.00000000
  eigenvalues    EBANDS =      -426.28661324
  atomic energy  EATOM  =     11127.81643196
  ---------------------------------------------------
  free energy    TOTEN  =       -68.15322725 eV

  energy without entropy =      -68.15322725  energy(sigma->0) =      -68.15322725


--------------------------------------------------------------------------------------------------------




--------------------------------------- Iteration      1(   8)  ---------------------------------------


    POTLOK:  cpu time     45.8565: real time     45.8939
    SETDIJ:  cpu time      3.6993: real time      3.7023
    TRIAL :  cpu time      3.9722: real time      3.9754
    CORREC:  cpu time     51.8729: real time     51.9148
    CHARGE:  cpu time      1.0729: real time      1.0736
    --------------------------------------------
      LOOP:  cpu time    106.4771: real time    106.5669

 eigenvalue-minimisations  :     0
 total energy-change (2. order) :-0.1171600E+01  (-0.4048265E+00)
 number of electron      87.9999959 magnetization 
 augmentation part       56.7642920 magnetization 

 Free energy of the ion-electron system (eV)
  ---------------------------------------------------
  alpha Z        PSCENC =         5.85062430
  Ewald energy   TEWEN  =      9663.91341305
  -Hartree energ DENC   =    -19786.72266731
  -exchange      EXHF   =         0.00000000
  -V(xc)+E(xc)   XCENC  =       437.32522740
  PAW double counting   =     10439.19620836   -11387.10743803
  entropy T*S    EENTRO =        -0.00000000
  eigenvalues    EBANDS =      -569.59662658
  atomic energy  EATOM  =     11127.81643196
  ---------------------------------------------------
  free energy    TOTEN  =       -69.32482686 eV

  energy without entropy =      -69.32482686  energy(sigma->0) =      -69.32482686


--------------------------------------------------------------------------------------------------------




--------------------------------------- Iteration      1(   9)  ---------------------------------------


    POTLOK:  cpu time     45.8704: real time     45.9068
    SETDIJ:  cpu time      3.7035: real time      3.7063
    TRIAL :  cpu time      3.9736: real time      3.9772
    CORREC:  cpu time     51.7432: real time     51.7849
    CHARGE:  cpu time      1.0636: real time      1.0644
    --------------------------------------------
      LOOP:  cpu time    106.3629: real time    106.4486

 eigenvalue-minimisations  :     0
 total energy-change (2. order) :-0.3935361E+00  (-0.2538390E+00)
 number of electron      87.9999959 magnetization 
 augmentation part       56.8149870 magnetization 

 Free energy of the ion-electron system (eV)
  ---------------------------------------------------
  alpha Z        PSCENC =         5.85062430
  Ewald energy   TEWEN  =      9663.91341305
  -Hartree energ DENC   =    -19801.88718529
  -exchange      EXHF   =         0.00000000
  -V(xc)+E(xc)   XCENC  =       438.91860410
  PAW double counting   =     10453.32422242   -11409.55235997
  entropy T*S    EENTRO =        -0.00000000
  eigenvalues    EBANDS =      -548.10211353
  atomic energy  EATOM  =     11127.81643196
  ---------------------------------------------------
  free energy    TOTEN  =       -69.71836296 eV

  energy without entropy =      -69.71836296  energy(sigma->0) =      -69.71836296


--------------------------------------------------------------------------------------------------------




--------------------------------------- Iteration      1(  10)  ---------------------------------------


    POTLOK:  cpu time     45.8731: real time     45.9106
    SETDIJ:  cpu time      3.6852: real time      3.6880
    TRIAL :  cpu time      3.9715: real time      3.9754
    CORREC:  cpu time     51.7078: real time     51.7491
    CHARGE:  cpu time      1.0736: real time      1.0743
    --------------------------------------------
      LOOP:  cpu time    106.3146: real time    106.4051

 eigenvalue-minimisations  :     0
 total energy-change (2. order) :-0.2533744E+00  (-0.8368787E-01)
 number of electron      87.9999959 magnetization 
 augmentation part       56.7406417 magnetization 

 Free energy of the ion-electron system (eV)
  ---------------------------------------------------
  alpha Z        PSCENC =         5.85062430
  Ewald energy   TEWEN  =      9663.91341305
  -Hartree energ DENC   =    -19817.47144112
  -exchange      EXHF   =         0.00000000
  -V(xc)+E(xc)   XCENC  =       439.41189738
  PAW double counting   =     10468.02117451   -11422.94181126
  entropy T*S    EENTRO =        -0.00000000
  eigenvalues    EBANDS =      -534.57202615
  atomic energy  EATOM  =     11127.81643196
  ---------------------------------------------------
  free energy    TOTEN  =       -69.97173734 eV

  energy without entropy =      -69.97173734  energy(sigma->0) =      -69.97173734


--------------------------------------------------------------------------------------------------------




--------------------------------------- Iteration      1(  11)  ---------------------------------------


    POTLOK:  cpu time     45.8448: real time     45.8827
    SETDIJ:  cpu time      3.6920: real time      3.6957
    TRIAL :  cpu time      3.9697: real time      3.9726
    CORREC:  cpu time     51.6755: real time     51.7175
    CHARGE:  cpu time      1.0840: real time      1.0856
    --------------------------------------------
      LOOP:  cpu time    106.2699: real time    106.3614

 eigenvalue-minimisations  :     0
 total energy-change (2. order) :-0.8329987E-01  (-0.7393657E-01)
 number of electron      87.9999959 magnetization 
 augmentation part       56.8706392 magnetization 

 Free energy of the ion-electron system (eV)
  ---------------------------------------------------
  alpha Z        PSCENC =         5.85062430
  Ewald energy   TEWEN  =      9663.91341305
  -Hartree energ DENC   =    -19811.40695544
  -exchange      EXHF   =         0.00000000
  -V(xc)+E(xc)   XCENC  =       439.09098325
  PAW double counting   =     10465.84633820   -11416.27587212
  entropy T*S    EENTRO =        -0.00000000
  eigenvalues    EBANDS =      -544.89000040
  atomic energy  EATOM  =     11127.81643196
  ---------------------------------------------------
  free energy    TOTEN  =       -70.05503721 eV

  energy without entropy =      -70.05503721  energy(sigma->0) =      -70.05503721


--------------------------------------------------------------------------------------------------------




--------------------------------------- Iteration      1(  12)  ---------------------------------------


    POTLOK:  cpu time     45.7762: real time     45.8132
    SETDIJ:  cpu time      3.6918: real time      3.6946
    TRIAL :  cpu time      3.9780: real time      3.9809
    CORREC:  cpu time     51.5769: real time     51.6192
    CHARGE:  cpu time      1.0903: real time      1.0919
    --------------------------------------------
      LOOP:  cpu time    106.1170: real time    106.2073

 eigenvalue-minimisations  :     0
 total energy-change (2. order) :-0.7463277E-01  (-0.1489284E-01)
 number of electron      87.9999959 magnetization 
 augmentation part       56.8090938 magnetization 

 Free energy of the ion-electron system (eV)
  ---------------------------------------------------
  alpha Z        PSCENC =         5.85062430
  Ewald energy   TEWEN  =      9663.91341305
  -Hartree energ DENC   =    -19831.37542728
  -exchange      EXHF   =         0.00000000
  -V(xc)+E(xc)   XCENC  =       439.84295462
  PAW double counting   =     10470.45431267   -11423.90351908
  entropy T*S    EENTRO =        -0.00000000
  eigenvalues    EBANDS =      -522.72846022
  atomic energy  EATOM  =     11127.81643196
  ---------------------------------------------------
  free energy    TOTEN  =       -70.12966998 eV

  energy without entropy =      -70.12966998  energy(sigma->0) =      -70.12966998


--------------------------------------------------------------------------------------------------------




--------------------------------------- Iteration      1(  13)  ---------------------------------------


    POTLOK:  cpu time     45.6938: real time     45.7303
    SETDIJ:  cpu time      3.7006: real time      3.7042
    TRIAL :  cpu time      3.9746: real time      3.9775
    CORREC:  cpu time     51.6329: real time     51.6746
    CHARGE:  cpu time      1.0996: real time      1.1003
    --------------------------------------------
      LOOP:  cpu time    106.1038: real time    106.1934

 eigenvalue-minimisations  :     0
 total energy-change (2. order) :-0.1488962E-01  (-0.1266234E-01)
 number of electron      87.9999959 magnetization 
 augmentation part       56.8513488 magnetization 

 Free energy of the ion-electron system (eV)
  ---------------------------------------------------
  alpha Z        PSCENC =         5.85062430
  Ewald energy   TEWEN  =      9663.91341305
  -Hartree energ DENC   =    -19819.75702664
  -exchange      EXHF   =         0.00000000
  -V(xc)+E(xc)   XCENC  =       439.43431388
  PAW double counting   =     10461.43848587   -11412.16500765
  entropy T*S    EENTRO =        -0.00000000
  eigenvalues    EBANDS =      -536.67579436
  atomic energy  EATOM  =     11127.81643196
  ---------------------------------------------------
  free energy    TOTEN  =       -70.14455960 eV

  energy without entropy =      -70.14455960  energy(sigma->0) =      -70.14455960


--------------------------------------------------------------------------------------------------------




--------------------------------------- Iteration      1(  14)  ---------------------------------------


    POTLOK:  cpu time     45.6552: real time     45.6916
    SETDIJ:  cpu time      3.6944: real time      3.6973
    TRIAL :  cpu time      3.9680: real time      3.9717
    CORREC:  cpu time     51.5952: real time     51.6372
    CHARGE:  cpu time      1.0912: real time      1.0919
    --------------------------------------------
      LOOP:  cpu time    106.0109: real time    106.0965

 eigenvalue-minimisations  :     0
 total energy-change (2. order) :-0.1258762E-01  (-0.2074938E-02)
 number of electron      87.9999959 magnetization 
 augmentation part       56.8460431 magnetization 

 Free energy of the ion-electron system (eV)
  ---------------------------------------------------
  alpha Z        PSCENC =         5.85062430
  Ewald energy   TEWEN  =      9663.91341305
  -Hartree energ DENC   =    -19821.03082221
  -exchange      EXHF   =         0.00000000
  -V(xc)+E(xc)   XCENC  =       439.57498653
  PAW double counting   =     10458.36720980   -11410.60115529
  entropy T*S    EENTRO =        -0.00000000
  eigenvalues    EBANDS =      -534.04783535
  atomic energy  EATOM  =     11127.81643196
  ---------------------------------------------------
  free energy    TOTEN  =       -70.15714722 eV

  energy without entropy =      -70.15714722  energy(sigma->0) =      -70.15714722


--------------------------------------------------------------------------------------------------------




--------------------------------------- Iteration      1(  15)  ---------------------------------------


    POTLOK:  cpu time     45.6813: real time     45.7192
    SETDIJ:  cpu time      3.6957: real time      3.6985
    TRIAL :  cpu time      3.9837: real time      3.9875
    CORREC:  cpu time     51.6318: real time     51.6743
    CHARGE:  cpu time      1.0878: real time      1.0885
    --------------------------------------------
      LOOP:  cpu time    106.0827: real time    106.1742

 eigenvalue-minimisations  :     0
 total energy-change (2. order) :-0.2086199E-02  (-0.1019124E-02)
 number of electron      87.9999959 magnetization 
 augmentation part       56.8373459 magnetization 

 Free energy of the ion-electron system (eV)
  ---------------------------------------------------
  alpha Z        PSCENC =         5.85062430
  Ewald energy   TEWEN  =      9663.91341305
  -Hartree energ DENC   =    -19820.08167840
  -exchange      EXHF   =         0.00000000
  -V(xc)+E(xc)   XCENC  =       439.53247840
  PAW double counting   =     10457.94173959   -11409.96797990
  entropy T*S    EENTRO =        -0.00000000
  eigenvalues    EBANDS =      -535.16426241
  atomic energy  EATOM  =     11127.81643196
  ---------------------------------------------------
  free energy    TOTEN  =       -70.15923342 eV

  energy without entropy =      -70.15923342  energy(sigma->0) =      -70.15923342


--------------------------------------------------------------------------------------------------------




--------------------------------------- Iteration      1(  16)  ---------------------------------------


    POTLOK:  cpu time     45.6685: real time     45.7049
    SETDIJ:  cpu time      3.6967: real time      3.6996
    TRIAL :  cpu time      3.9832: real time      3.9867
    CORREC:  cpu time     51.5709: real time     51.6120
    CHARGE:  cpu time      1.0909: real time      1.0915
    --------------------------------------------
      LOOP:  cpu time    106.0129: real time    106.1012

 eigenvalue-minimisations  :     0
 total energy-change (2. order) :-0.1018399E-02  (-0.4002204E-03)
 number of electron      87.9999959 magnetization 
 augmentation part       56.8488328 magnetization 

 Free energy of the ion-electron system (eV)
  ---------------------------------------------------
  alpha Z        PSCENC =         5.85062430
  Ewald energy   TEWEN  =      9663.91341305
  -Hartree energ DENC   =    -19819.50371222
  -exchange      EXHF   =         0.00000000
  -V(xc)+E(xc)   XCENC  =       439.48822167
  PAW double counting   =     10459.12860747   -11410.81695066
  entropy T*S    EENTRO =        -0.00000000
  eigenvalues    EBANDS =      -536.03688739
  atomic energy  EATOM  =     11127.81643196
  ---------------------------------------------------
  free energy    TOTEN  =       -70.16025182 eV

  energy without entropy =      -70.16025182  energy(sigma->0) =      -70.16025182


--------------------------------------------------------------------------------------------------------




--------------------------------------- Iteration      1(  17)  ---------------------------------------


    POTLOK:  cpu time     45.6539: real time     45.6908
    SETDIJ:  cpu time      3.6894: real time      3.6922
    TRIAL :  cpu time      3.9716: real time      3.9754
    CORREC:  cpu time     51.5680: real time     51.6099
    CHARGE:  cpu time      1.0861: real time      1.0868
    --------------------------------------------
      LOOP:  cpu time    105.9748: real time    106.0611

 eigenvalue-minimisations  :     0
 total energy-change (2. order) :-0.4066826E-03  (-0.2457162E-03)
 number of electron      87.9999959 magnetization 
 augmentation part       56.8416809 magnetization 

 Free energy of the ion-electron system (eV)
  ---------------------------------------------------
  alpha Z        PSCENC =         5.85062430
  Ewald energy   TEWEN  =      9663.91341305
  -Hartree energ DENC   =    -19821.27161627
  -exchange      EXHF   =         0.00000000
  -V(xc)+E(xc)   XCENC  =       439.55643066
  PAW double counting   =     10461.36039059   -11413.47099872
  entropy T*S    EENTRO =        -0.00000000
  eigenvalues    EBANDS =      -533.91533407
  atomic energy  EATOM  =     11127.81643196
  ---------------------------------------------------
  free energy    TOTEN  =       -70.16065850 eV

  energy without entropy =      -70.16065850  energy(sigma->0) =      -70.16065850


--------------------------------------------------------------------------------------------------------




--------------------------------------- Iteration      1(  18)  ---------------------------------------


    POTLOK:  cpu time     45.7340: real time     45.7693
    SETDIJ:  cpu time      3.7028: real time      3.7054
    TRIAL :  cpu time      3.9677: real time      3.9716
    CORREC:  cpu time     51.5729: real time     51.6133
    CHARGE:  cpu time      1.0874: real time      1.0881
    --------------------------------------------
      LOOP:  cpu time    106.0690: real time    106.1554

 eigenvalue-minimisations  :     0
 total energy-change (2. order) :-0.2351498E-03  (-0.7059818E-04)
 number of electron      87.9999959 magnetization 
 augmentation part       56.8478049 magnetization 

 Free energy of the ion-electron system (eV)
  ---------------------------------------------------
  alpha Z        PSCENC =         5.85062430
  Ewald energy   TEWEN  =      9663.91341305
  -Hartree energ DENC   =    -19819.85088914
  -exchange      EXHF   =         0.00000000
  -V(xc)+E(xc)   XCENC  =       439.51246356
  PAW double counting   =     10462.08941993   -11413.88576150
  entropy T*S    EENTRO =        -0.00000000
  eigenvalues    EBANDS =      -535.60659581
  atomic energy  EATOM  =     11127.81643196
  ---------------------------------------------------
  free energy    TOTEN  =       -70.16089365 eV

  energy without entropy =      -70.16089365  energy(sigma->0) =      -70.16089365


--------------------------------------------------------------------------------------------------------




--------------------------------------- Iteration      1(  19)  ---------------------------------------


    POTLOK:  cpu time     45.6966: real time     45.7347
    SETDIJ:  cpu time      3.6976: real time      3.7004
    TRIAL :  cpu time      3.9690: real time      3.9718
    CORREC:  cpu time     51.6115: real time     51.6546
    CHARGE:  cpu time      1.0854: real time      1.0860
    --------------------------------------------
      LOOP:  cpu time    106.0624: real time    106.1552

 eigenvalue-minimisations  :     0
 total energy-change (2. order) :-0.6244903E-04  (-0.3177757E-04)
 number of electron      87.9999959 magnetization 
 augmentation part       56.8445791 magnetization 

 Free energy of the ion-electron system (eV)
  ---------------------------------------------------
  alpha Z        PSCENC =         5.85062430
  Ewald energy   TEWEN  =      9663.91341305
  -Hartree energ DENC   =    -19820.76734314
  -exchange      EXHF   =         0.00000000
  -V(xc)+E(xc)   XCENC  =       439.54818370
  PAW double counting   =     10463.27899279   -11415.30632196
  entropy T*S    EENTRO =        -0.00000000
  eigenvalues    EBANDS =      -534.49493680
  atomic energy  EATOM  =     11127.81643196
  ---------------------------------------------------
  free energy    TOTEN  =       -70.16095610 eV

  energy without entropy =      -70.16095610  energy(sigma->0) =      -70.16095610


--------------------------------------------------------------------------------------------------------




--------------------------------------- Iteration      1(  20)  ---------------------------------------


    POTLOK:  cpu time     45.6462: real time     45.6829
    SETDIJ:  cpu time      3.6894: real time      3.6922
    TRIAL :  cpu time      3.9754: real time      3.9782
    CORREC:  cpu time     51.5528: real time     51.5941
    CHARGE:  cpu time      1.0850: real time      1.0857
    --------------------------------------------
      LOOP:  cpu time    105.9511: real time    106.0398

 eigenvalue-minimisations  :     0
 total energy-change (2. order) :-0.2725054E-04  (-0.9828185E-05)
 number of electron      87.9999959 magnetization 
 augmentation part       56.8434326 magnetization 

 Free energy of the ion-electron system (eV)
  ---------------------------------------------------
  alpha Z        PSCENC =         5.85062430
  Ewald energy   TEWEN  =      9663.91341305
  -Hartree energ DENC   =    -19820.32105107
  -exchange      EXHF   =         0.00000000
  -V(xc)+E(xc)   XCENC  =       439.52964453
  PAW double counting   =     10463.07706588   -11414.98241786
  entropy T*S    EENTRO =        -0.00000000
  eigenvalues    EBANDS =      -535.04469414
  atomic energy  EATOM  =     11127.81643196
  ---------------------------------------------------
  free energy    TOTEN  =       -70.16098335 eV

  energy without entropy =      -70.16098335  energy(sigma->0) =      -70.16098335


--------------------------------------------------------------------------------------------------------




--------------------------------------- Iteration      1(  21)  ---------------------------------------


    POTLOK:  cpu time     45.7103: real time     45.7467
    SETDIJ:  cpu time      3.7033: real time      3.7062
    TRIAL :  cpu time      3.9575: real time      3.9605
    CORREC:  cpu time     51.5154: real time     51.5567
    CHARGE:  cpu time      1.0865: real time      1.0871
    --------------------------------------------
      LOOP:  cpu time    105.9758: real time    106.0635

 eigenvalue-minimisations  :     0
 total energy-change (2. order) :-0.1023329E-04  (-0.1415775E-04)
 number of electron      87.9999959 magnetization 
 augmentation part       56.8458174 magnetization 

 Free energy of the ion-electron system (eV)
  ---------------------------------------------------
  alpha Z        PSCENC =         5.85062430
  Ewald energy   TEWEN  =      9663.91341305
  -Hartree energ DENC   =    -19820.21173612
  -exchange      EXHF   =         0.00000000
  -V(xc)+E(xc)   XCENC  =       439.52318864
  PAW double counting   =     10463.12083545   -11414.98802418
  entropy T*S    EENTRO =        -0.00000000
  eigenvalues    EBANDS =      -535.18572668
  atomic energy  EATOM  =     11127.81643196
  ---------------------------------------------------
  free energy    TOTEN  =       -70.16099359 eV

  energy without entropy =      -70.16099359  energy(sigma->0) =      -70.16099359


--------------------------------------------------------------------------------------------------------




--------------------------------------- Iteration      1(  22)  ---------------------------------------


    POTLOK:  cpu time     45.6634: real time     45.6997
    SETDIJ:  cpu time      3.6868: real time      3.6896
    TRIAL :  cpu time      3.9607: real time      3.9635
    CORREC:  cpu time     51.5505: real time     51.5910
    CHARGE:  cpu time      1.0936: real time      1.0951
    --------------------------------------------
      LOOP:  cpu time    105.9621: real time    106.0464

 eigenvalue-minimisations  :     0
 total energy-change (2. order) :-0.9647218E-05  (-0.6026073E-05)
 number of electron      87.9999959 magnetization 
 augmentation part       56.8443926 magnetization 

 Free energy of the ion-electron system (eV)
  ---------------------------------------------------
  alpha Z        PSCENC =         5.85062430
  Ewald energy   TEWEN  =      9663.91341305
  -Hartree energ DENC   =    -19820.57883779
  -exchange      EXHF   =         0.00000000
  -V(xc)+E(xc)   XCENC  =       439.53643795
  PAW double counting   =     10463.54612815   -11415.51425539
  entropy T*S    EENTRO =        -0.00000000
  eigenvalues    EBANDS =      -534.73094544
  atomic energy  EATOM  =     11127.81643196
  ---------------------------------------------------
  free energy    TOTEN  =       -70.16100323 eV

  energy without entropy =      -70.16100323  energy(sigma->0) =      -70.16100323


--------------------------------------------------------------------------------------------------------




--------------------------------------- Iteration      1(  23)  ---------------------------------------


    POTLOK:  cpu time     45.6998: real time     45.7360
    SETDIJ:  cpu time      3.6951: real time      3.6979
    TRIAL :  cpu time      3.9795: real time      3.9833
    CORREC:  cpu time     51.6005: real time     51.6412
    CHARGE:  cpu time      1.0726: real time      1.0732
    --------------------------------------------
      LOOP:  cpu time    106.0502: real time    106.1381

 eigenvalue-minimisations  :     0
 total energy-change (2. order) :-0.4825839E-05  (-0.5992089E-05)
 number of electron      87.9999959 magnetization 
 augmentation part       56.8429380 magnetization 

 Free energy of the ion-electron system (eV)
  ---------------------------------------------------
  alpha Z        PSCENC =         5.85062430
  Ewald energy   TEWEN  =      9663.91341305
  -Hartree energ DENC   =    -19820.32893922
  -exchange      EXHF   =         0.00000000
  -V(xc)+E(xc)   XCENC  =       439.52779024
  PAW double counting   =     10463.42580959   -11415.33745800
  entropy T*S    EENTRO =        -0.00000000
  eigenvalues    EBANDS =      -535.02867997
  atomic energy  EATOM  =     11127.81643196
  ---------------------------------------------------
  free energy    TOTEN  =       -70.16100806 eV

  energy without entropy =      -70.16100806  energy(sigma->0) =      -70.16100806


--------------------------------------------------------------------------------------------------------




--------------------------------------- Iteration      1(  24)  ---------------------------------------


    POTLOK:  cpu time     45.6756: real time     45.7112
    SETDIJ:  cpu time      3.6971: real time      3.6999
    TRIAL :  cpu time      3.9738: real time      3.9776
    CORREC:  cpu time     51.6152: real time     51.6555
    CHARGE:  cpu time      1.0774: real time      1.0785
    --------------------------------------------
      LOOP:  cpu time    106.0419: real time    106.1292

 eigenvalue-minimisations  :     0
 total energy-change (2. order) : 0.4829220E-05  (-0.1090772E-04)
 number of electron      87.9999959 magnetization 
 augmentation part       56.8453033 magnetization 

 Free energy of the ion-electron system (eV)
  ---------------------------------------------------
  alpha Z        PSCENC =         5.85062430
  Ewald energy   TEWEN  =      9663.91341305
  -Hartree energ DENC   =    -19819.91006830
  -exchange      EXHF   =         0.00000000
  -V(xc)+E(xc)   XCENC  =       439.51756034
  PAW double counting   =     10463.34587200   -11415.19220550
  entropy T*S    EENTRO =        -0.00000000
  eigenvalues    EBANDS =      -535.50263108
  atomic energy  EATOM  =     11127.81643196
  ---------------------------------------------------
  free energy    TOTEN  =       -70.16100323 eV

  energy without entropy =      -70.16100323  energy(sigma->0) =      -70.16100323


--------------------------------------------------------------------------------------------------------




--------------------------------------- Iteration      1(  25)  ---------------------------------------


    POTLOK:  cpu time     45.6431: real time     45.6844
    SETDIJ:  cpu time      3.6875: real time      3.6906
    TRIAL :  cpu time      3.9605: real time      3.9644
    CORREC:  cpu time     51.5451: real time     51.5919
    CHARGE:  cpu time      1.0724: real time      1.0733
    --------------------------------------------
      LOOP:  cpu time    105.9143: real time    106.0106

 eigenvalue-minimisations  :     0
 total energy-change (2. order) :-0.1197517E-04  (-0.1355942E-05)
 number of electron      87.9999959 magnetization 
 augmentation part       56.8448094 magnetization 

 Free energy of the ion-electron system (eV)
  ---------------------------------------------------
  alpha Z        PSCENC =         5.85062430
  Ewald energy   TEWEN  =      9663.91341305
  -Hartree energ DENC   =    -19820.37445997
  -exchange      EXHF   =         0.00000000
  -V(xc)+E(xc)   XCENC  =       439.53254778
  PAW double counting   =     10463.62631021   -11415.56760508
  entropy T*S    EENTRO =        -0.00000000
  eigenvalues    EBANDS =      -534.95827744
  atomic energy  EATOM  =     11127.81643196
  ---------------------------------------------------
  free energy    TOTEN  =       -70.16101521 eV

  energy without entropy =      -70.16101521  energy(sigma->0) =      -70.16101521


--------------------------------------------------------------------------------------------------------




--------------------------------------- Iteration      1(  26)  ---------------------------------------


    POTLOK:  cpu time     45.6453: real time     45.6874
    SETDIJ:  cpu time      3.6940: real time      3.6972
    TRIAL :  cpu time      3.9737: real time      3.9771
    CORREC:  cpu time     51.6389: real time     51.6857
    EDDIAG:  cpu time      1.0446: real time      1.0458
    CHARGE:  cpu time      1.0755: real time      1.0764
    --------------------------------------------
      LOOP:  cpu time    107.0744: real time    107.1755

 eigenvalue-minimisations  :     0
 total energy-change (2. order) :-0.4792309E-06  (-0.2757904E-06)
 number of electron      87.9999959 magnetization 
 augmentation part       56.8445390 magnetization 

 Free energy of the ion-electron system (eV)
  ---------------------------------------------------
  alpha Z        PSCENC =         5.85062430
  Ewald energy   TEWEN  =      9663.91341305
  -Hartree energ DENC   =    -19820.33871559
  -exchange      EXHF   =         0.00000000
  -V(xc)+E(xc)   XCENC  =       439.53003246
  PAW double counting   =     10463.61760816   -11415.54166255
  entropy T*S    EENTRO =        -0.00000000
  eigenvalues    EBANDS =      -535.00874746
  atomic energy  EATOM  =     11127.81643196
  ---------------------------------------------------
  free energy    TOTEN  =       -70.16101568 eV

  energy without entropy =      -70.16101568  energy(sigma->0) =      -70.16101568


--------------------------------------------------------------------------------------------------------


  average scaling for gradient   0.9637


 average (electrostatic) potential at core
  the test charge radii are     0.9430
  (the norm of the test charge is              1.0000)
       1 -79.8746       2 -79.7437       3 -79.7435       4 -79.9893       5 -79.7434
       6 -79.8744       7 -79.6800       8 -79.7439
 
 
 
 E-fermi :  -4.1300     XC(G=0):  -0.2965     alpha+bet : -0.1585

 Fermi energy:        -4.1299551718

 k-point     1 :       0.0000    0.0000    0.0000
  band No.  band energies     occupation 
      1      -9.9185      2.00000
      2      -8.1118      2.00000
      3      -7.9437      2.00000
      4      -7.4429      2.00000
      5      -7.2052      2.00000
      6      -7.1254      2.00000
      7      -6.9491      2.00000
      8      -6.9343      2.00000
      9      -6.9078      2.00000
     10      -6.8872      2.00000
     11      -6.6919      2.00000
     12      -6.5696      2.00000
     13      -6.5647      2.00000
     14      -6.4055      2.00000
     15      -6.4014      2.00000
     16      -6.3350      2.00000
     17      -6.3091      2.00000
     18      -6.2441      2.00000
     19      -6.2076      2.00000
     20      -5.9690      2.00000
     21      -5.9602      2.00000
     22      -5.8895      2.00000
     23      -5.7639      2.00000
     24      -5.7326      2.00000
     25      -5.7231      2.00000
     26      -5.7182      2.00000
     27      -5.6445      2.00000
     28      -5.5773      2.00000
     29      -5.5766      2.00000
     30      -5.4562      2.00000
     31      -5.3744      2.00000
     32      -5.3411      2.00000
     33      -5.3359      2.00000
     34      -5.3212      2.00000
     35      -5.2656      2.00000
     36      -5.1623      2.00000
     37      -5.1526      2.00000
     38      -5.1010      2.00000
     39      -5.0962      2.00000
     40      -5.0846      2.00000
     41      -5.0300      2.00000
     42      -5.0262      2.00000
     43      -4.7599      2.00000
     44      -4.3800      2.00000
     45      -3.0308      0.00000
     46      -2.6929      0.00000
     47      -2.3023      0.00000
     48      -2.1634      0.00000
     49      -1.7968      0.00000
     50      -1.5471      0.00000
     51      -0.9196      0.00000
     52      -0.3871      0.00000
     53       0.0450      0.00000
     54       0.1897      0.00000
     55       0.1962      0.00000
     56       0.4366      0.00000
     57       0.5149      0.00000
     58       0.5276      0.00000
     59       0.5474      0.00000
     60       0.5911      0.00000
     61       0.6402      0.00000
     62       0.6961      0.00000
     63       0.7394      0.00000
     64       0.9010      0.00000


--------------------------------------------------------------------------------------------------------


 soft charge-density along one line, spin component           1
         0         1         2         3         4         5         6         7         8         9
 total charge-density along one line
 
 pseudopotential strength for first ion, spin component:           1
-10.785   0.017  -0.004  -0.020   0.001   1.132  -0.013   0.004
  0.017 -10.815  -0.015   0.004   0.016  -0.013   1.154   0.012
 -0.004  -0.015 -10.796   0.012  -0.021   0.004   0.012   1.140
 -0.020   0.004   0.012 -10.775   0.015   0.016  -0.004  -0.009
  0.001   0.016  -0.021   0.015 -10.778  -0.000  -0.013   0.016
  1.132  -0.013   0.004   0.016  -0.000   6.413   0.008  -0.002
 -0.013   1.154   0.012  -0.004  -0.013   0.008   6.399  -0.007
  0.004   0.012   1.140  -0.009   0.016  -0.002  -0.007   6.411
  0.016  -0.004  -0.009   1.124  -0.011  -0.010   0.002   0.007
 -0.000  -0.013   0.016  -0.011   1.125  -0.000   0.008  -0.010
 -0.003   0.008   0.003  -0.004  -0.005  -0.001   0.002   0.001
 -0.005   0.015   0.004  -0.008  -0.008  -0.002   0.004   0.002
  0.007  -0.020   0.013   0.000   0.022   0.001   0.002  -0.003
  0.000  -0.015  -0.022   0.006  -0.000  -0.001   0.000   0.001
 -0.016   0.000  -0.006  -0.020   0.010  -0.001  -0.001   0.002
  0.006  -0.022   0.015   0.001   0.026   0.003  -0.001  -0.002
  0.001  -0.015  -0.024   0.005  -0.000  -0.002  -0.003  -0.003
 -0.015   0.001  -0.007  -0.022   0.012  -0.005  -0.002   0.002
 total augmentation occupancy for first ion, spin component:           1
  1.968   0.003  -0.001   0.001  -0.002  -0.026  -0.003   0.002   0.005  -0.001   0.008   0.001  -0.021  -0.006   0.038   0.013
  0.003   1.959   0.007  -0.001   0.009  -0.003  -0.018  -0.002  -0.002  -0.009  -0.023  -0.001   0.077   0.037  -0.003  -0.034
 -0.001   0.007   1.956  -0.003  -0.006   0.002  -0.002  -0.009   0.005   0.006  -0.000  -0.001  -0.052   0.082   0.030   0.018
  0.001  -0.001  -0.003   1.962   0.005   0.005  -0.002   0.005  -0.018  -0.007   0.006  -0.002  -0.002  -0.010   0.075  -0.000
 -0.002   0.009  -0.006   0.005   1.951  -0.001  -0.010   0.006  -0.007  -0.010   0.015  -0.004  -0.087   0.009  -0.051   0.029
 -0.026  -0.003   0.002   0.005  -0.001   0.005  -0.001   0.001   0.003  -0.000  -0.018   0.003  -0.007  -0.002   0.013   0.001
 -0.003  -0.018  -0.002  -0.002  -0.010  -0.001   0.008   0.002  -0.001  -0.002   0.046  -0.007   0.017   0.016  -0.002  -0.002
  0.002  -0.002  -0.009   0.005   0.006   0.001   0.002   0.008  -0.000   0.000   0.017  -0.004  -0.004   0.021   0.005   0.000
  0.005  -0.002   0.005  -0.018  -0.007   0.003  -0.001  -0.000   0.007  -0.001  -0.020   0.004  -0.003  -0.007   0.018   0.000
 -0.001  -0.009   0.006  -0.007  -0.010  -0.000  -0.002   0.000  -0.001   0.005  -0.016   0.002  -0.012  -0.002  -0.007   0.001
  0.008  -0.023  -0.000   0.006   0.015  -0.018   0.046   0.017  -0.020  -0.016   1.995  -0.200   0.225   0.286  -0.113  -0.034
  0.001  -0.001  -0.001  -0.002  -0.004   0.003  -0.007  -0.004   0.004   0.002  -0.200   0.023  -0.028  -0.039   0.016   0.004
 -0.021   0.077  -0.052  -0.002  -0.087  -0.007   0.017  -0.004  -0.003  -0.012   0.225  -0.028   0.078   0.030  -0.014  -0.012
 -0.006   0.037   0.082  -0.010   0.009  -0.002   0.016   0.021  -0.007  -0.002   0.286  -0.039   0.030   0.105  -0.011  -0.005
  0.038  -0.003   0.030   0.075  -0.051   0.013  -0.002   0.005   0.018  -0.007  -0.113   0.016  -0.014  -0.011   0.080   0.002
  0.013  -0.034   0.018  -0.000   0.029   0.001  -0.002   0.000   0.000   0.001  -0.034   0.004  -0.012  -0.005   0.002   0.002
 -0.000  -0.028  -0.041   0.013  -0.001   0.000  -0.002  -0.002   0.001   0.000  -0.044   0.006  -0.005  -0.015   0.002   0.001
 -0.029  -0.000  -0.009  -0.035   0.015  -0.001   0.000  -0.000  -0.002   0.001   0.018  -0.002   0.002   0.002  -0.010  -0.000


------------------------ aborting loop because EDIFF is reached ----------------------------------------


    FORLOC:  cpu time      0.0766: real time      0.0766
    FORNL :  cpu time      0.5414: real time      0.5422
    STRESS:  cpu time     15.1702: real time     15.1834
    FORCOR:  cpu time     45.3069: real time     45.3482
    OFIELD:  cpu time      0.0010: real time      0.0010

  FORCE on cell =-STRESS in cart. coord.  units (eV):
  Direction    XX          YY          ZZ          XY          YZ          ZX
  --------------------------------------------------------------------------------------
  Alpha Z     5.85062     5.85062     5.85062
  Ewald    2099.51805  4575.09397  2989.29745   -28.18565   652.24514  -430.33043
  Hartree  5666.66616  7749.13742  6404.50185   -26.33259   548.37483  -351.45539
  E(xc)    -568.23330  -568.22610  -568.24467    -0.00462     0.00936     0.00995
  Local   -8533.57365-13074.78070-10153.88618    54.67811 -1196.54073   777.77665
  n-local  -183.82815  -184.31501  -184.05732    -0.02000    -0.10445     0.14412
  augment   787.63934   779.51380   784.13074    -0.06932    -1.97388     1.91730
  Kinetic   724.48455   715.80692   720.81481    -0.05853    -2.15282     2.00343
  Fock        0.00000     0.00000     0.00000     0.00000     0.00000     0.00000
  -------------------------------------------------------------------------------------
  Total      -1.47638    -1.91908    -1.59269     0.00740    -0.14255     0.06563
  in kB      -0.29568    -0.38434    -0.31897     0.00148    -0.02855     0.01314
  external pressure =       -0.33 kB  Pullay stress =        0.00 kB


 VOLUME and BASIS-vectors are now :
 -----------------------------------------------------------------------------
  energy-cutoff  :      520.00
  volume of cell :     8000.00
      direct lattice vectors                 reciprocal lattice vectors
    20.000000000  0.000000000  0.000000000     0.050000000  0.000000000  0.000000000
     0.000000000 20.000000000  0.000000000     0.000000000  0.050000000  0.000000000
     0.000000000  0.000000000 20.000000000     0.000000000  0.000000000  0.050000000

  length of vectors
    20.000000000 20.000000000 20.000000000     0.050000000  0.050000000  0.050000000


 FORCES acting on ions:
    Electron-Ion                     Ewald-Force                    Non-Local-Force
 -----------------------------------------------------------------------------------------------
   -.326E+03 0.645E+03 0.823E+03   0.322E+03 -.636E+03 -.813E+03   0.386E+01 -.818E+01 -.979E+01
   -.629E+03 -.415E+03 -.822E+03   0.627E+03 0.411E+03 0.816E+03   0.230E+01 0.423E+01 0.528E+01
   0.850E+03 0.595E+03 0.409E+03   -.846E+03 -.589E+03 -.406E+03   -.394E+01 -.556E+01 -.228E+01
   -.429E+03 -.351E+03 0.805E+03   0.428E+03 0.350E+03 -.802E+03   0.111E+01 0.926E+00 -.213E+01
   0.942E+03 -.594E+03 -.605E+02   -.937E+03 0.589E+03 0.586E+02   -.473E+01 0.503E+01 0.191E+01
   -.193E+03 -.107E+04 0.147E+03   0.191E+03 0.105E+04 -.146E+03   0.222E+01 0.131E+02 -.142E+01
   0.508E+03 0.414E+03 -.950E+03   -.503E+03 -.410E+03 0.942E+03   -.452E+01 -.369E+01 0.846E+01
   -.721E+03 0.773E+03 -.353E+03   0.718E+03 -.767E+03 0.351E+03   0.313E+01 -.634E+01 0.112E+01
 -----------------------------------------------------------------------------------------------
   0.582E+00 0.473E+00 -.109E+01   -.114E-12 0.114E-12 0.171E-12   -.564E+00 -.488E+00 0.114E+01
 
 
 POSITION                                       TOTAL-FORCE (eV/Angst)
 -----------------------------------------------------------------------------------
     10.90446      7.82921      8.19612        -0.064818      0.145886      0.232042
     11.06347     10.37385     11.41415        -0.211557     -0.084465     -0.268563
      8.94284      8.42813      9.43454         0.260333      0.139716      0.113880
     10.74078     10.00332      9.04266        -0.156851     -0.111925      0.254966
      8.77299     10.63439     10.30470         0.304130     -0.145257      0.007168
     10.56971     12.16960      9.90837        -0.036456     -0.258782      0.058639
      9.27665      8.80849     11.78412         0.128539      0.108390     -0.253272
     11.23371      8.16841     10.54378        -0.223321      0.206436     -0.144860
 -----------------------------------------------------------------------------------
    total drift:                                0.018344     -0.015407      0.045109


--------------------------------------------------------------------------------------------------------



  FREE ENERGIE OF THE ION-ELECTRON SYSTEM (eV)
  ---------------------------------------------------
  free  energy   TOTEN  =       -70.16101568 eV

  energy  without entropy=      -70.16101568  energy(sigma->0) =      -70.16101568
 


--------------------------------------------------------------------------------------------------------


    POTLOK:  cpu time     49.4290: real time     49.4744


--------------------------------------------------------------------------------------------------------


     LOOP+:  cpu time   2424.9045: real time   2427.1005
    4ORBIT:  cpu time      0.0000: real time      0.0000

 total amount of memory used by VASP MPI-rank0   346597. kBytes
=======================================================================

   base      :      30000. kBytes
   nonlr-proj:       8719. kBytes
   fftplans  :      28721. kBytes
   grid      :     268680. kBytes
   one-center:        124. kBytes
   wavefun   :      10353. kBytes
 
  
  
 General timing and accounting informations for this job:
 ========================================================
  
                  Total CPU time used (sec):     2438.246
                            User time (sec):     2432.974
                          System time (sec):        5.273
                         Elapsed time (sec):     2441.404
  
                   Maximum memory used (kb):     1778196.
                   Average memory used (kb):          N/A
  
                          Minor page faults:        99645
                          Major page faults:            0
                 Voluntary context switches:        30338
