 vasp.6.3.0 20Jan22 (build Apr  1 2022 16:44:48) complex                         
 executed on        HPECrayEX_GCC date 2023.01.09  20:24:23
 running  768 mpi-ranks, with    1 threads/rank
 distrk:  each k-point on  384 cores,    2 groups
 distr:  one band on NCORE=   4 cores,   96 groups


--------------------------------------------------------------------------------------------------------


 INCAR:
   SYSTEM = MgO-rocksalt
   ISMEAR = 0
   SIGMA = 0.05
   EDIFF = 1E-6
   ALGO = ALL
   ISTART = 0
   IBRION = -1
   NSW = 0
   ISYM = 2
   GGA = MK
   LUSE_VDW = .TRUE.
   PARAM1 = 0.1234
   PARAM2 = 0.711357
   ZAB_VDW = -1.8867
   AGGAC = 0.0
   ENCUT = 520
   PREC = Accurate
   LASPH = .TRUE.
   LREAL = Auto
   ISPIN = 1
   NELM = 200
   NELMIN = 8
   NCORE = 4
   KPAR = 2
   LWAVE = .FALSE.
   LCHARG = .FALSE.

 POTCAR:    PAW_PBE Cu 22Jun2005                  
 -----------------------------------------------------------------------------
|                                                                             |
|               ----> ADVICE to this user running VASP <----                  |
|                                                                             |
|     You have switched on vdW-DFT.                                           |
|     This routine was written and supplied by Jiri Klimes. We recommend      |
|     that you carefully read and cite the following publications:            |
|       J. Klimes, D.R. Bowler, A. Michelides                                 |
|          J. Phys.: Cond Matt. 22 022201 (2010)                              |
|       J. Klimes, D.R. Bowler, A. Michelides                                 |
|          Phys. Rev. B. 83, 195131 (2011)                                    |
|     and references therein.                                                 |
|                                                                             |
 -----------------------------------------------------------------------------

 POTCAR:    PAW_PBE Cu 22Jun2005                  
   SHA256 =  0e71e558f37a4e8407882b4609ceaae59938afaad9ced71dfe8490308a0ab630 Cu/POTCAR             
   COPYR  = (c) Copyright 22Jun2005 Georg Kresse                                                    
   COPYR  = This file is part of the software VASP. Any use, copying, and all other rights are regul
   COPYR  = If you do not have a valid VASP license, you may not use, copy or distribute this file. 
   VRHFIN =Cu: d10 p1                                                                               
   LEXCH  = PE                                                                                      
   EATOM  =  1390.9808 eV,  102.2342 Ry                                                             
                                                                                                    
   TITEL  = PAW_PBE Cu 22Jun2005                                                                    
   LULTRA =        F    use ultrasoft PP ?                                                          
   IUNSCR =        1    unscreen: 0-lin 1-nonlin 2-no                                               
   RPACOR =    2.000    partial core radius                                                         
   POMASS =   63.546; ZVAL   =   11.000    mass and valenz                                          
   RCORE  =    2.300    outmost cutoff radius                                                       
   RWIGS  =    2.200; RWIGS  =    1.164    wigner-seitz radius (au A)                               
   ENMAX  =  295.446; ENMIN  =  221.585 eV                                                          
   ICORE  =        3    local potential                                                             
   LCOR   =        T    correct aug charges                                                         
   LPAW   =        T    paw PP                                                                      
   EAUG   =  586.980                                                                                
   DEXC   =    0.000                                                                                
   RMAX   =    2.344    core radius for proj-oper                                                   
   RAUG   =    1.300    factor for augmentation sphere                                              
   RDEP   =    2.302    radius for radial grids                                                     
   RDEPT  =    1.771    core radius for aug-charge                                                  
                                                                                                    
   Atomic configuration                                                                             
    9 entries                                                                                       
     n  l   j            E        occ.                                                              
     1  0  0.50     -8850.2468   2.0000                                                             
     2  0  0.50     -1062.3498   2.0000                                                             
     2  1  1.50      -916.8226   6.0000                                                             
     3  0  0.50      -114.6929   2.0000                                                             
     3  1  1.50       -72.1325   6.0000                                                             
     3  2  2.50        -5.0394  10.0000                                                             
     4  0  0.50        -4.6097   1.0000                                                             
     4  1  0.50        -4.0817   0.0000                                                             
     4  3  2.50        -1.3606   0.0000                                                             
   Description                                                                                      
     l       E           TYP  RCUT    TYP  RCUT                                                     
     2     -5.0393973     23  2.200                                                                 
     2     10.8846608     23  2.200                                                                 
     0     -4.6097109     23  2.200                                                                 
     0      8.2520465     23  2.200                                                                 
     1     -2.7211652     23  2.200                                                                 
     1     21.7055443     23  2.200                                                                 
     3      2.7211652     23  2.300                                                                 
  local pseudopotential read in
  partial core-charges read in
  partial kinetic energy density read in
  atomic valenz-charges read in
  non local Contribution for L=           2  read in
    real space projection operators read in
  non local Contribution for L=           2  read in
    real space projection operators read in
  non local Contribution for L=           0  read in
    real space projection operators read in
  non local Contribution for L=           0  read in
    real space projection operators read in
  non local Contribution for L=           1  read in
    real space projection operators read in
  non local Contribution for L=           1  read in
    real space projection operators read in
    PAW grid and wavefunctions read in

   number of l-projection  operators is LMAX  =           6
   number of lm-projection operators is LMMAX =          18

 -----------------------------------------------------------------------------
|                                                                             |
|               ----> ADVICE to this user running VASP <----                  |
|                                                                             |
|     You have a (more or less) 'small supercell' and for smaller cells       |
|     it is recommended to use the reciprocal-space projection scheme!        |
|     The real-space optimization is not efficient for small cells and it     |
|     is also less accurate ...                                               |
|     Therefore, set LREAL=.FALSE. in the INCAR file.                         |
|                                                                             |
 -----------------------------------------------------------------------------

 Optimization of the real space projectors (new method)

 maximal supplied QI-value         = 16.25
 optimisation between [QCUT,QGAM] = [ 11.54, 23.24] = [ 37.28,151.24] Ry 
 Optimized for a Real-space Cutoff    1.53 Angstroem

   l    n(q)    QCUT    max X(q) W(low)/X(q) W(high)/X(q)  e(spline) 
   2     10    11.539     4.610    0.96E-04    0.13E-03    0.19E-06
   2     10    11.539     8.522    0.16E-03    0.21E-03    0.28E-06
   0     11    11.539    51.609    0.45E-04    0.31E-04    0.11E-06
   0     11    11.539    27.747    0.39E-04    0.29E-04    0.10E-06
   1     10    11.539    20.408    0.70E-05    0.38E-04    0.18E-06
   1     10    11.539    13.425    0.66E-05    0.34E-04    0.17E-06
 -----------------------------------------------------------------------------
|                                                                             |
|               ----> ADVICE to this user running VASP <----                  |
|                                                                             |
|     You enforced a specific xc type in the INCAR file but a different       |
|     type was found in the POTCAR file.                                      |
|     I HOPE YOU KNOW WHAT YOU ARE DOING!                                     |
|                                                                             |
 -----------------------------------------------------------------------------

  PAW_PBE Cu 22Jun2005                  :
 energy of atom  1       EATOM=-1390.9808
 kinetic energy error for atom=    0.0037 (will be added to EATOM!!)


 POSCAR: Cu Mg  O
  positions in direct lattice
  No initial velocities read in
 exchange correlation table for  LEXCH =       43
   RHO(1)=    0.500       N(1)  =     2000
   RHO(2)=  100.500       N(2)  =     4000



--------------------------------------------------------------------------------------------------------


 ion  position               nearest neighbor table
   1  0.398  0.602  0.598-   2 2.32
   2  0.321  0.679  0.599-   1 2.32
   3  0.579  0.421  0.599-   4 2.32
   4  0.502  0.498  0.598-   3 2.32

  LATTYP: Found a simple tetragonal cell.
 ALAT       =    21.1388521970
 C/A-ratio  =     1.0461251639
  
  Lattice vectors:
  
 A1 = (  21.1388521970,   0.0000000000,   0.0000000000)
 A2 = (   0.0000000000,  21.1388521970,   0.0000000000)
 A3 = (   0.0000000000,   0.0000000000,  22.1138852197)


Analysis of symmetry for initial positions (statically):
=====================================================================
 Subroutine PRICEL returns:
 Original cell was already a primitive cell.
 

 Routine SETGRP: Setting up the symmetry group for a 
 simple tetragonal supercell.


 Subroutine GETGRP returns: Found  4 space group operations
 (whereof  1 operations were pure point group operations)
 out of a pool of 16 trial point group operations.


The static configuration has the point symmetry C_1 .
 The point group associated with its full space group is C_2v.


Analysis of symmetry for dynamics (positions and initial velocities):
=====================================================================
 Subroutine PRICEL returns:
 Original cell was already a primitive cell.
 

 Routine SETGRP: Setting up the symmetry group for a 
 simple tetragonal supercell.


 Subroutine GETGRP returns: Found  4 space group operations
 (whereof  1 operations were pure point group operations)
 out of a pool of 16 trial point group operations.


The dynamic configuration has the point symmetry C_1 .
 The point group associated with its full space group is C_2v.


Analysis of constrained symmetry for selective dynamics:
=====================================================================
 Subroutine PRICEL returns:
 Original cell was already a primitive cell.
 

 Routine SETGRP: Setting up the symmetry group for a 
 simple tetragonal supercell.


 Subroutine GETGRP returns: Found  4 space group operations
 (whereof  1 operations were pure point group operations)
 out of a pool of 16 trial point group operations.


The constrained configuration has the point symmetry C_1 .
 The point group associated with its full space group is C_2v.


 Subroutine INISYM returns: Found  4 space group operations
 (whereof  1 operations are pure point group operations),
 and found     1 'primitive' translations


----------------------------------------------------------------------------------------

                                     Primitive cell                                     

  volume of cell :    9881.6133

  direct lattice vectors                    reciprocal lattice vectors
    21.138852197  0.000000000  0.000000000     0.047306258  0.000000000  0.000000000
     0.000000000 21.138852197  0.000000000     0.000000000  0.047306258  0.000000000
     0.000000000  0.000000000 22.113885220     0.000000000  0.000000000  0.045220457

  length of vectors
    21.138852197 21.138852197 22.113885220     0.047306258  0.047306258  0.045220457

  position of ions in fractional coordinates (direct lattice)
     0.398329241  0.601718395  0.597737471
     0.320617240  0.679428851  0.599224153
     0.579428377  0.420617713  0.599224153
     0.501717922  0.498329241  0.597737471

  ion indices of the primitive-cell ions
   primitive index   ion index
                 1           1
                 2           2
                 3           3
                 4           4

----------------------------------------------------------------------------------------



 KPOINTS: KPOINTS created by Atomic Simulation Env

Automatic generation of k-mesh.
 Grid dimensions read from file:
 generate k-points for:    1    1    1

 Generating k-lattice:

  Cartesian coordinates                     Fractional coordinates (reciprocal lattice)
     0.047306258  0.000000000  0.000000000     1.000000000  0.000000000  0.000000000
     0.000000000  0.047306258  0.000000000     0.000000000  1.000000000  0.000000000
     0.000000000  0.000000000  0.045220457     0.000000000  0.000000000  1.000000000

  Length of vectors
     0.047306258  0.047306258  0.045220457

  Shift w.r.t. Gamma in fractional coordinates (k-lattice)
     0.000000000  0.000000000  0.000000000

 
 Subroutine IBZKPT returns following result:
 ===========================================
 
 Found      1 irreducible k-points:
 
 Following reciprocal coordinates:
            Coordinates               Weight
  0.000000  0.000000  0.000000      1.000000
 
 Following cartesian coordinates:
            Coordinates               Weight
  0.000000  0.000000  0.000000      1.000000
 


--------------------------------------------------------------------------------------------------------




 Dimension of arrays:
   k-points           NKPTS =      1   k-points in BZ     NKDIM =      1   number of bands    NBANDS=     96
   number of dos      NEDOS =    301   number of ions     NIONS =      4
   non local maximal  LDIM  =      6   non local SUM 2l+1 LMDIM =     18
   total plane-waves  NPLWV = ******
   max r-space proj   IRMAX =   6628   max aug-charges    IRDMAX=  12805
   dimension x,y,z NGX =   160 NGY =  160 NGZ =  168
   dimension x,y,z NGXF=   320 NGYF=  320 NGZF=  336
   support grid    NGXF=   320 NGYF=  320 NGZF=  336
   ions per type =               4
   NGX,Y,Z   is equivalent  to a cutoff of  12.58, 12.58, 12.63 a.u.
   NGXF,Y,Z  is equivalent  to a cutoff of  25.17, 25.17, 25.26 a.u.

 SYSTEM =  MgO-rocksalt                            
 POSCAR =  Cu Mg  O                                

 Startparameter for this run:
   NWRITE =      2    write-flag & timer
   PREC   = accura    normal or accurate (medium, high low for compatibility)
   ISTART =      0    job   : 0-new  1-cont  2-samecut
   ICHARG =      2    charge: 1-file 2-atom 10-const
   ISPIN  =      1    spin polarized calculation?
   LNONCOLLINEAR =      F non collinear calculations
   LSORBIT =      F    spin-orbit coupling
   INIWAV =      1    electr: 0-lowe 1-rand  2-diag
   LASPH  =      T    aspherical Exc in radial PAW
 Electronic Relaxation 1
   ENCUT  =  520.0 eV  38.22 Ry    6.18 a.u.  39.30 39.30 41.12*2*pi/ulx,y,z
   ENINI  =  520.0     initial cutoff
   ENAUG  =  587.0 eV  augmentation charge cutoff
   NELM   =    200;   NELMIN=  8; NELMDL= -5     # of ELM steps 
   EDIFF  = 0.1E-05   stopping-criterion for ELM
   LREAL  =      T    real-space projection
   NLSPLINE    = F    spline interpolate recip. space projectors
   LCOMPAT=      F    compatible to vasp.4.4
   GGA_COMPAT  = T    GGA compatible to vasp.4.4-vasp.4.6
   LMAXPAW     = -100 max onsite density
   LMAXMIX     =    2 max onsite mixed and CHGCAR
   VOSKOWN=      0    Vosko Wilk Nusair interpolation
   ROPT   =   -0.00025
 Ionic relaxation
   EDIFFG = 0.1E-04   stopping-criterion for IOM
   NSW    =      0    number of steps for IOM
   NBLOCK =      1;   KBLOCK =      1    inner block; outer block 
   IBRION =     -1    ionic relax: 0-MD 1-quasi-New 2-CG
   NFREE  =      0    steps in history (QN), initial steepest desc. (CG)
   ISIF   =      2    stress and relaxation
   IWAVPR =     10    prediction:  0-non 1-charg 2-wave 3-comb
   ISYM   =      2    0-nonsym 1-usesym 2-fastsym
   LCORR  =      T    Harris-Foulkes like correction to forces

   POTIM  = 0.5000    time-step for ionic-motion
   TEIN   =    0.0    initial temperature
   TEBEG  =    0.0;   TEEND  =   0.0 temperature during run
   SMASS  =  -3.00    Nose mass-parameter (am)
   estimated Nose-frequenzy (Omega)   =  0.10E-29 period in steps = 0.13E+47 mass=  -0.102E-25a.u.
   SCALEE = 1.0000    scale energy and forces
   NPACO  =    256;   APACO  = 10.0  distance and # of slots for P.C.
   PSTRESS=    0.0 pullay stress

  Mass of Ions in am
   POMASS =  63.55
  Ionic Valenz
   ZVAL   =  11.00
  Atomic Wigner-Seitz radii
   RWIGS  =  -1.00
  virtual crystal weights 
   VCA    =   1.00
   NELECT =      44.0000    total number of electrons
   NUPDOWN=      -1.0000    fix difference up-down

 DOS related values:
   EMIN   =  10.00;   EMAX   =-10.00  energy-range for DOS
   EFERMI =   0.00
   ISMEAR =     0;   SIGMA  =   0.05  broadening in eV -4-tet -1-fermi 0-gaus

 Electronic relaxation 2 (details)
   IALGO  =     58    algorithm
   LDIAG  =      T    sub-space diagonalisation (order eigenvalues)
   LSUBROT=      F    optimize rotation matrix (better conditioning)
   TURBO    =      0    0=normal 1=particle mesh
   IRESTART =      0    0=no restart 2=restart with 2 vectors
   NREBOOT  =      0    no. of reboots
   NMIN     =      0    reboot dimension
   EREF     =   0.00    reference energy to select bands
   IMIX   =      4    mixing-type and parameters
     AMIX     =   0.40;   BMIX     =  1.00
     AMIX_MAG =   1.60;   BMIX_MAG =  1.00
     AMIN     =   0.10
     WC   =   100.;   INIMIX=   1;  MIXPRE=   1;  MAXMIX= -45

 Intra band minimization:
   WEIMIN = 0.0000     energy-eigenvalue tresh-hold
   EBREAK =  0.26E-08  absolut break condition
   DEPER  =   0.30     relativ break condition  

   TIME   =   0.40     timestep for ELM

  volume/ion in A,a.u.               =    2470.40     16671.10
  Fermi-wavevector in a.u.,A,eV,Ry     =   0.269329  0.508958  0.986941  0.072538
  Thomas-Fermi vector in A             =   1.106612

 Write flags
   LWAVE        =      F    write WAVECAR
   LDOWNSAMPLE  =      F    k-point downsampling of WAVECAR
   LCHARG       =      F    write CHGCAR
   LVTOT        =      F    write LOCPOT, total local potential
   LVHAR        =      F    write LOCPOT, Hartree potential only
   LELF         =      F    write electronic localiz. function (ELF)
   LORBIT       =      0    0 simple, 1 ext, 2 COOP (PROOUT), +10 PAW based schemes


 Dipole corrections
   LMONO  =      F    monopole corrections only (constant potential shift)
   LDIPOL =      F    correct potential (dipole corrections)
   IDIPOL =      0    1-x, 2-y, 3-z, 4-all directions 
   EPSILON=  1.0000000 bulk dielectric constant

 Exchange correlation treatment:
   GGA     =    MK    GGA type
   LEXCH   =    43    internal setting for exchange type
   LIBXC   =     F    Libxc                    
   VOSKOWN =     0    Vosko Wilk Nusair interpolation
   LHFCALC =     F    Hartree Fock is set to
   LHFONE  =     F    Hartree Fock one center treatment
   AEXX    =    0.0000 exact exchange contribution

 vdW DFT:
   LUSE_VDW   =     T    switch on vdW DFT
   Zab_VDW    =******    correlation parameter
   PARAM1     =0.1234
   PARAM2     =0.7114
   PARAM3     =0.0000
   -- rVV10 --
   BPARAM     = 6.3000
   CPARAM     = 0.0093

 Linear response parameters
   LEPSILON=     F    determine dielectric tensor
   LRPA    =     F    only Hartree local field effects (RPA)
   LNABLA  =     F    use nabla operator in PAW spheres
   LVEL    =     F    velocity operator in full k-point grid
   CSHIFT  =0.1000    complex shift for real part using Kramers Kronig
   OMEGAMAX=  -1.0    maximum frequency
   DEG_THRESHOLD= 0.2000000E-02 threshold for treating states as degnerate
   RTIME   =   -0.100 relaxation time in fs
  (WPLASMAI=    0.000 imaginary part of plasma frequency in eV, 0.658/RTIME)
   DFIELD  = 0.0000000 0.0000000 0.0000000 field for delta impulse in time

  Optional k-point grid parameters
   LKPOINTS_OPT  =     F    use optional k-point grid
   KPOINTS_OPT_MODE=     1    mode for optional k-point grid

 Orbital magnetization related:
   ORBITALMAG=     F  switch on orbital magnetization
   LCHIMAG   =     F  perturbation theory with respect to B field
   DQ        =  0.001000  dq finite difference perturbation B field
   LLRAUG    =     F  two centre corrections for induced B field



--------------------------------------------------------------------------------------------------------


 Static calculation
 charge density and potential will be updated during run
 non-spin polarized calculation
 Conjugate gradient for all bands (Freysoldt, et al. PRB 79, 241103 (2009))
 preconditioned conjugated gradient                                        
 perform sub-space diagonalisation
    before iterative eigenvector-optimisation
 modified Broyden-mixing scheme, WC =      100.0
 initial mixing is a Kerker type mixing with AMIX =  0.4000 and BMIX =      1.0000
 Hartree-type preconditioning will be used
 using additional bands           74
 real space projection scheme for non local part
 use partial core corrections
 no Harris-corrections to forces 
 use gradient corrections 
 use of overlap-Matrix (Vanderbilt PP)
 Gauss-broadening in eV      SIGMA  =   0.05


--------------------------------------------------------------------------------------------------------


  energy-cutoff  :      520.00
  volume of cell :     9881.61
      direct lattice vectors                 reciprocal lattice vectors
    21.138852197  0.000000000  0.000000000     0.047306258  0.000000000  0.000000000
     0.000000000 21.138852197  0.000000000     0.000000000  0.047306258  0.000000000
     0.000000000  0.000000000 22.113885220     0.000000000  0.000000000  0.045220457

  length of vectors
    21.138852197 21.138852197 22.113885220     0.047306258  0.047306258  0.045220457



 k-points in units of 2pi/SCALE and weight: KPOINTS created by Atomic Simulation Env
   0.00000000  0.00000000  0.00000000       1.000

 k-points in reciprocal lattice and weights: KPOINTS created by Atomic Simulation Env
   0.00000000  0.00000000  0.00000000       1.000

 position of ions in fractional coordinates (direct lattice) 
   0.39832924  0.60171840  0.59773747
   0.32061724  0.67942885  0.59922415
   0.57942838  0.42061771  0.59922415
   0.50171792  0.49832924  0.59773747

 position of ions in cartesian coordinates  (Angst):
   8.42022296 12.71963622 13.21829782
   6.77748045 14.36234605 13.25117414
  12.24845083  8.89137567 13.25117414
  10.60574100 10.53410818 13.21829782



--------------------------------------------------------------------------------------------------------


 k-point   1 :   0.0000 0.0000 0.0000  plane waves:  265979

 maximum and minimum number of plane-waves per node :     66495    66494

 maximum number of plane-waves:    265979
 maximum index in each direction: 
   IXMAX=   39   IYMAX=   39   IZMAX=   41
   IXMIN=  -39   IYMIN=  -39   IZMIN=  -41


 real space projection operators:
  total allocation   :       3587.06 KBytes
  max/ min on nodes  :        904.08        889.88


 parallel 3D FFT for wavefunctions:
    minimum data exchange during FFTs selected (reduces bandwidth)
 parallel 3D FFT for charge:
    minimum data exchange during FFTs selected (reduces bandwidth)


 total amount of memory used by VASP MPI-rank0   118517. kBytes
=======================================================================

   base      :      30000. kBytes
   nonlr-proj:       1542. kBytes
   fftplans  :      35474. kBytes
   grid      :      48291. kBytes
   one-center:         15. kBytes
   wavefun   :       3195. kBytes

     INWAV:  cpu time      0.0002: real time      0.0004
 Broyden mixing: mesh for mixing (old mesh)
   NGX = 79   NGY = 79   NGZ = 83
  (NGX  =320   NGY  =320   NGZ  =336)
  gives a total of 518003 points

 initial charge density was supplied:
 charge density of overlapping atoms calculated
 number of electron      44.0000000 magnetization 
 keeping initial charge density in first step


--------------------------------------------------------------------------------------------------------


 Maximum index for non-local projection operator         1589
 Maximum index for augmentation-charges            0 (set IRDMAX)


--------------------------------------------------------------------------------------------------------


 First call to EWALD:  gamma=   0.083
 Maximum number of real-space cells 3x 3x 3
 Maximum number of reciprocal cells 3x 3x 3

    FEWALD:  cpu time      0.0010: real time      0.0010


--------------------------------------- Iteration      1(   1)  ---------------------------------------


vdW kernel read from vdw_kernel.bindat
  0.0000  0.2424  0.5071  0.7962  1.1119  1.4567  1.8333  2.2446  2.6937  3.1842
  3.7199  4.3049  4.9438  5.6415  6.4036  7.2358  8.1446  9.1372 10.2212 11.4050
 12.6979 14.1099 15.6519 17.3360 19.1751 21.1837 23.3773 25.7729 28.3892 31.2465
 34.3669 37.7748 41.4965 45.5611 50.0000

    POTLOK:  cpu time      2.0908: real time      2.1395
    SETDIJ:  cpu time      0.2085: real time      0.2086
    TRIAL :  cpu time      0.6291: real time      0.6294
    CORREC:  cpu time      0.0010: real time      0.0010
    --------------------------------------------
      LOOP:  cpu time      2.9307: real time      2.9799

 eigenvalue-minimisations  :   192
 total energy-change (2. order) : 0.2404673E+03  (-0.8522523E+03)
 number of electron      44.0000000 magnetization 
 augmentation part       44.0000000 magnetization 

 Free energy of the ion-electron system (eV)
  ---------------------------------------------------
  alpha Z        PSCENC =         1.18414354
  Ewald energy   TEWEN  =      1143.30920876
  -Hartree energ DENC   =     -6231.77849323
  -exchange      EXHF   =         0.00000000
  -V(xc)+E(xc)   XCENC  =       176.24745056
  PAW double counting   =      4915.35606902    -5337.06777903
  entropy T*S    EENTRO =        -0.06188332
  eigenvalues    EBANDS =        -7.56797829
  atomic energy  EATOM  =      5580.84654338
  ---------------------------------------------------
  free energy    TOTEN  =       240.46728138 eV

  energy without entropy =      240.52916470  energy(sigma->0) =      240.49822304


--------------------------------------------------------------------------------------------------------




--------------------------------------- Iteration      1(   2)  ---------------------------------------


    TRIAL :  cpu time      0.6221: real time      0.6222
    CORREC:  cpu time      0.0003: real time      0.0003
    --------------------------------------------
      LOOP:  cpu time      0.6252: real time      0.6298

 eigenvalue-minimisations  :   192
 total energy-change (2. order) :-0.2269870E+03  (-0.2265111E+03)
 number of electron      44.0000000 magnetization 
 augmentation part       44.0000000 magnetization 

 Free energy of the ion-electron system (eV)
  ---------------------------------------------------
  alpha Z        PSCENC =         1.18414354
  Ewald energy   TEWEN  =      1143.30920876
  -Hartree energ DENC   =     -6231.77849323
  -exchange      EXHF   =         0.00000000
  -V(xc)+E(xc)   XCENC  =       176.24745056
  PAW double counting   =      4915.35606902    -5337.06777903
  entropy T*S    EENTRO =        -0.00000000
  eigenvalues    EBANDS =      -234.61687320
  atomic energy  EATOM  =      5580.84654338
  ---------------------------------------------------
  free energy    TOTEN  =        13.48026979 eV

  energy without entropy =       13.48026979  energy(sigma->0) =       13.48026979


--------------------------------------------------------------------------------------------------------




--------------------------------------- Iteration      1(   3)  ---------------------------------------


    TRIAL :  cpu time      0.6319: real time      0.6320
    CORREC:  cpu time      0.0009: real time      0.0009
    --------------------------------------------
      LOOP:  cpu time      0.6395: real time      0.6401

 eigenvalue-minimisations  :   192
 total energy-change (2. order) :-0.8966770E+01  (-0.8966770E+01)
 number of electron      44.0000000 magnetization 
 augmentation part       44.0000000 magnetization 

 Free energy of the ion-electron system (eV)
  ---------------------------------------------------
  alpha Z        PSCENC =         1.18414354
  Ewald energy   TEWEN  =      1143.30920876
  -Hartree energ DENC   =     -6231.77849323
  -exchange      EXHF   =         0.00000000
  -V(xc)+E(xc)   XCENC  =       176.24745056
  PAW double counting   =      4915.35606902    -5337.06777903
  entropy T*S    EENTRO =        -0.00000000
  eigenvalues    EBANDS =      -243.58364359
  atomic energy  EATOM  =      5580.84654338
  ---------------------------------------------------
  free energy    TOTEN  =         4.51349939 eV

  energy without entropy =        4.51349939  energy(sigma->0) =        4.51349939


--------------------------------------------------------------------------------------------------------




--------------------------------------- Iteration      1(   4)  ---------------------------------------


    TRIAL :  cpu time      0.6207: real time      0.6207
    CORREC:  cpu time      0.0012: real time      0.0012
    --------------------------------------------
      LOOP:  cpu time      0.6284: real time      0.6288

 eigenvalue-minimisations  :   192
 total energy-change (2. order) :-0.1854528E+00  (-0.1854528E+00)
 number of electron      44.0000000 magnetization 
 augmentation part       44.0000000 magnetization 

 Free energy of the ion-electron system (eV)
  ---------------------------------------------------
  alpha Z        PSCENC =         1.18414354
  Ewald energy   TEWEN  =      1143.30920876
  -Hartree energ DENC   =     -6231.77849323
  -exchange      EXHF   =         0.00000000
  -V(xc)+E(xc)   XCENC  =       176.24745056
  PAW double counting   =      4915.35606902    -5337.06777903
  entropy T*S    EENTRO =        -0.00000000
  eigenvalues    EBANDS =      -243.76909635
  atomic energy  EATOM  =      5580.84654338
  ---------------------------------------------------
  free energy    TOTEN  =         4.32804663 eV

  energy without entropy =        4.32804663  energy(sigma->0) =        4.32804663


--------------------------------------------------------------------------------------------------------




--------------------------------------- Iteration      1(   5)  ---------------------------------------


    TRIAL :  cpu time      2.0108: real time      2.0111
    CORREC:  cpu time      0.0009: real time      0.0009
    CHARGE:  cpu time      0.6426: real time      0.6429
    --------------------------------------------
      LOOP:  cpu time      2.6573: real time      2.6620

 eigenvalue-minimisations  :   384
 total energy-change (2. order) :-0.2674997E-02  (-0.2674997E-02)
 number of electron      43.9999943 magnetization 
 augmentation part       28.2117410 magnetization 

 Free energy of the ion-electron system (eV)
  ---------------------------------------------------
  alpha Z        PSCENC =         1.18414354
  Ewald energy   TEWEN  =      1143.30920876
  -Hartree energ DENC   =     -6231.77849323
  -exchange      EXHF   =         0.00000000
  -V(xc)+E(xc)   XCENC  =       176.24745056
  PAW double counting   =      4915.35606902    -5337.06777903
  entropy T*S    EENTRO =        -0.00000000
  eigenvalues    EBANDS =      -243.77177135
  atomic energy  EATOM  =      5580.84654338
  ---------------------------------------------------
  free energy    TOTEN  =         4.32537164 eV

  energy without entropy =        4.32537164  energy(sigma->0) =        4.32537164


--------------------------------------------------------------------------------------------------------




--------------------------------------- Iteration      1(   6)  ---------------------------------------


    POTLOK:  cpu time      1.4836: real time      1.4837
    SETDIJ:  cpu time      0.2194: real time      0.2194
    TRIAL :  cpu time      0.9226: real time      0.9229
    CORREC:  cpu time      2.4448: real time      2.4450
    CHARGE:  cpu time      0.6449: real time      0.6449
    --------------------------------------------
      LOOP:  cpu time      5.7176: real time      5.7233

 eigenvalue-minimisations  :     0
 total energy-change (2. order) : 0.1678286E+01  (-0.5615212E+00)
 number of electron      43.9999942 magnetization 
 augmentation part       28.6199900 magnetization 

 Free energy of the ion-electron system (eV)
  ---------------------------------------------------
  alpha Z        PSCENC =         1.18414354
  Ewald energy   TEWEN  =      1143.30920876
  -Hartree energ DENC   =     -6206.28464529
  -exchange      EXHF   =         0.00000000
  -V(xc)+E(xc)   XCENC  =       174.00589961
  PAW double counting   =      5017.45159831    -5430.44728184
  entropy T*S    EENTRO =        -0.00000000
  eigenvalues    EBANDS =      -274.06180867
  atomic energy  EATOM  =      5580.84654338
  ---------------------------------------------------
  free energy    TOTEN  =         6.00365779 eV

  energy without entropy =        6.00365779  energy(sigma->0) =        6.00365779


--------------------------------------------------------------------------------------------------------




--------------------------------------- Iteration      1(   7)  ---------------------------------------


    POTLOK:  cpu time      1.5245: real time      1.5251
    SETDIJ:  cpu time      0.2032: real time      0.2032
    TRIAL :  cpu time      0.2503: real time      0.2503
    CORREC:  cpu time      2.4398: real time      2.4400
    CHARGE:  cpu time      0.6423: real time      0.6423
    --------------------------------------------
      LOOP:  cpu time      5.0672: real time      5.0683

 eigenvalue-minimisations  :     0
 total energy-change (2. order) :-0.5404745E+00  (-0.3864217E+00)
 number of electron      43.9999942 magnetization 
 augmentation part       28.5277000 magnetization 

 Free energy of the ion-electron system (eV)
  ---------------------------------------------------
  alpha Z        PSCENC =         1.18414354
  Ewald energy   TEWEN  =      1143.30920876
  -Hartree energ DENC   =     -6256.22905332
  -exchange      EXHF   =         0.00000000
  -V(xc)+E(xc)   XCENC  =       176.19019283
  PAW double counting   =      5048.93338345    -5477.44126697
  entropy T*S    EENTRO =        -0.00000000
  eigenvalues    EBANDS =      -211.32996836
  atomic energy  EATOM  =      5580.84654338
  ---------------------------------------------------
  free energy    TOTEN  =         5.46318330 eV

  energy without entropy =        5.46318330  energy(sigma->0) =        5.46318330


--------------------------------------------------------------------------------------------------------




--------------------------------------- Iteration      1(   8)  ---------------------------------------


    POTLOK:  cpu time      1.5049: real time      1.5050
    SETDIJ:  cpu time      0.2182: real time      0.2182
    TRIAL :  cpu time      0.2498: real time      0.2498
    CORREC:  cpu time      2.4341: real time      2.4342
    CHARGE:  cpu time      0.6483: real time      0.6484
    --------------------------------------------
      LOOP:  cpu time      5.0581: real time      5.0629

 eigenvalue-minimisations  :     0
 total energy-change (2. order) :-0.3848029E+00  (-0.6116856E-01)
 number of electron      43.9999942 magnetization 
 augmentation part       28.6072666 magnetization 

 Free energy of the ion-electron system (eV)
  ---------------------------------------------------
  alpha Z        PSCENC =         1.18414354
  Ewald energy   TEWEN  =      1143.30920876
  -Hartree energ DENC   =     -6229.53613423
  -exchange      EXHF   =         0.00000000
  -V(xc)+E(xc)   XCENC  =       175.41584358
  PAW double counting   =      5026.31094229    -5449.47494126
  entropy T*S    EENTRO =        -0.00000000
  eigenvalues    EBANDS =      -242.97722566
  atomic energy  EATOM  =      5580.84654338
  ---------------------------------------------------
  free energy    TOTEN  =         5.07838039 eV

  energy without entropy =        5.07838039  energy(sigma->0) =        5.07838039


--------------------------------------------------------------------------------------------------------




--------------------------------------- Iteration      1(   9)  ---------------------------------------


    POTLOK:  cpu time      1.5101: real time      1.5102
    SETDIJ:  cpu time      0.2197: real time      0.2197
    TRIAL :  cpu time      0.2489: real time      0.2489
    CORREC:  cpu time      2.4383: real time      2.4384
    CHARGE:  cpu time      0.6440: real time      0.6440
    --------------------------------------------
      LOOP:  cpu time      5.0677: real time      5.0685

 eigenvalue-minimisations  :     0
 total energy-change (2. order) :-0.6123757E-01  (-0.2250944E-01)
 number of electron      43.9999942 magnetization 
 augmentation part       28.5449671 magnetization 

 Free energy of the ion-electron system (eV)
  ---------------------------------------------------
  alpha Z        PSCENC =         1.18414354
  Ewald energy   TEWEN  =      1143.30920876
  -Hartree energ DENC   =     -6240.95023208
  -exchange      EXHF   =         0.00000000
  -V(xc)+E(xc)   XCENC  =       175.90379854
  PAW double counting   =      5036.52564285    -5462.48554351
  entropy T*S    EENTRO =        -0.00000000
  eigenvalues    EBANDS =      -229.31641865
  atomic energy  EATOM  =      5580.84654338
  ---------------------------------------------------
  free energy    TOTEN  =         5.01714281 eV

  energy without entropy =        5.01714281  energy(sigma->0) =        5.01714281


--------------------------------------------------------------------------------------------------------




--------------------------------------- Iteration      1(  10)  ---------------------------------------


    POTLOK:  cpu time      1.5051: real time      1.5052
    SETDIJ:  cpu time      0.2150: real time      0.2151
    TRIAL :  cpu time      0.2492: real time      0.2493
    CORREC:  cpu time      2.4388: real time      2.4389
    CHARGE:  cpu time      0.6433: real time      0.6434
    --------------------------------------------
      LOOP:  cpu time      5.0584: real time      5.0589

 eigenvalue-minimisations  :     0
 total energy-change (2. order) :-0.2252312E-01  (-0.2099090E-01)
 number of electron      43.9999942 magnetization 
 augmentation part       28.5737256 magnetization 

 Free energy of the ion-electron system (eV)
  ---------------------------------------------------
  alpha Z        PSCENC =         1.18414354
  Ewald energy   TEWEN  =      1143.30920876
  -Hartree energ DENC   =     -6232.79758863
  -exchange      EXHF   =         0.00000000
  -V(xc)+E(xc)   XCENC  =       175.56997680
  PAW double counting   =      5031.89475404    -5455.16699579
  entropy T*S    EENTRO =        -0.00000000
  eigenvalues    EBANDS =      -239.84542240
  atomic energy  EATOM  =      5580.84654338
  ---------------------------------------------------
  free energy    TOTEN  =         4.99461970 eV

  energy without entropy =        4.99461970  energy(sigma->0) =        4.99461970


--------------------------------------------------------------------------------------------------------




--------------------------------------- Iteration      1(  11)  ---------------------------------------


    POTLOK:  cpu time      1.5096: real time      1.5103
    SETDIJ:  cpu time      0.2151: real time      0.2151
    TRIAL :  cpu time      0.2496: real time      0.2497
    CORREC:  cpu time      2.4322: real time      2.4323
    CHARGE:  cpu time      0.6446: real time      0.6447
    --------------------------------------------
      LOOP:  cpu time      5.0542: real time      5.0603

 eigenvalue-minimisations  :     0
 total energy-change (2. order) :-0.2107222E-01  (-0.1933831E-02)
 number of electron      43.9999942 magnetization 
 augmentation part       28.5628613 magnetization 

 Free energy of the ion-electron system (eV)
  ---------------------------------------------------
  alpha Z        PSCENC =         1.18414354
  Ewald energy   TEWEN  =      1143.30920876
  -Hartree energ DENC   =     -6235.59423716
  -exchange      EXHF   =         0.00000000
  -V(xc)+E(xc)   XCENC  =       175.71448285
  PAW double counting   =      5032.14009416    -5456.10577264
  entropy T*S    EENTRO =        -0.00000000
  eigenvalues    EBANDS =      -236.52091541
  atomic energy  EATOM  =      5580.84654338
  ---------------------------------------------------
  free energy    TOTEN  =         4.97354748 eV

  energy without entropy =        4.97354748  energy(sigma->0) =        4.97354748


--------------------------------------------------------------------------------------------------------




--------------------------------------- Iteration      1(  12)  ---------------------------------------


    POTLOK:  cpu time      1.5029: real time      1.5030
    SETDIJ:  cpu time      0.2171: real time      0.2171
    TRIAL :  cpu time      0.2492: real time      0.2492
    CORREC:  cpu time      2.4279: real time      2.4280
    CHARGE:  cpu time      0.6417: real time      0.6417
    --------------------------------------------
      LOOP:  cpu time      5.0417: real time      5.0466

 eigenvalue-minimisations  :     0
 total energy-change (2. order) :-0.1934592E-02  (-0.1758484E-02)
 number of electron      43.9999942 magnetization 
 augmentation part       28.5713719 magnetization 

 Free energy of the ion-electron system (eV)
  ---------------------------------------------------
  alpha Z        PSCENC =         1.18414354
  Ewald energy   TEWEN  =      1143.30920876
  -Hartree energ DENC   =     -6233.83951051
  -exchange      EXHF   =         0.00000000
  -V(xc)+E(xc)   XCENC  =       175.63945357
  PAW double counting   =      5030.24865016    -5453.71690872
  entropy T*S    EENTRO =        -0.00000000
  eigenvalues    EBANDS =      -238.69996728
  atomic energy  EATOM  =      5580.84654338
  ---------------------------------------------------
  free energy    TOTEN  =         4.97161289 eV

  energy without entropy =        4.97161289  energy(sigma->0) =        4.97161289


--------------------------------------------------------------------------------------------------------




--------------------------------------- Iteration      1(  13)  ---------------------------------------


    POTLOK:  cpu time      1.4928: real time      1.4935
    SETDIJ:  cpu time      0.2377: real time      0.2378
    TRIAL :  cpu time      0.2510: real time      0.2510
    CORREC:  cpu time      2.4271: real time      2.4273
    CHARGE:  cpu time      0.6471: real time      0.6471
    --------------------------------------------
      LOOP:  cpu time      5.0579: real time      5.0651

 eigenvalue-minimisations  :     0
 total energy-change (2. order) :-0.1757923E-02  (-0.3492681E-03)
 number of electron      43.9999942 magnetization 
 augmentation part       28.5745795 magnetization 

 Free energy of the ion-electron system (eV)
  ---------------------------------------------------
  alpha Z        PSCENC =         1.18414354
  Ewald energy   TEWEN  =      1143.30920876
  -Hartree energ DENC   =     -6234.53098030
  -exchange      EXHF   =         0.00000000
  -V(xc)+E(xc)   XCENC  =       175.66780407
  PAW double counting   =      5029.81222159    -5453.54623299
  entropy T*S    EENTRO =        -0.00000000
  eigenvalues    EBANDS =      -237.77285309
  atomic energy  EATOM  =      5580.84654338
  ---------------------------------------------------
  free energy    TOTEN  =         4.96985496 eV

  energy without entropy =        4.96985496  energy(sigma->0) =        4.96985496


--------------------------------------------------------------------------------------------------------




--------------------------------------- Iteration      1(  14)  ---------------------------------------


    POTLOK:  cpu time      1.4836: real time      1.4837
    SETDIJ:  cpu time      0.2232: real time      0.2232
    TRIAL :  cpu time      0.2502: real time      0.2503
    CORREC:  cpu time      2.4221: real time      2.4222
    CHARGE:  cpu time      0.6412: real time      0.6413
    --------------------------------------------
      LOOP:  cpu time      5.0224: real time      5.0291

 eigenvalue-minimisations  :     0
 total energy-change (2. order) :-0.3495527E-03  (-0.9609144E-04)
 number of electron      43.9999942 magnetization 
 augmentation part       28.5720186 magnetization 

 Free energy of the ion-electron system (eV)
  ---------------------------------------------------
  alpha Z        PSCENC =         1.18414354
  Ewald energy   TEWEN  =      1143.30920876
  -Hartree energ DENC   =     -6234.80604930
  -exchange      EXHF   =         0.00000000
  -V(xc)+E(xc)   XCENC  =       175.68138419
  PAW double counting   =      5029.91281788    -5453.75648728
  entropy T*S    EENTRO =        -0.00000000
  eigenvalues    EBANDS =      -237.40205575
  atomic energy  EATOM  =      5580.84654338
  ---------------------------------------------------
  free energy    TOTEN  =         4.96950541 eV

  energy without entropy =        4.96950541  energy(sigma->0) =        4.96950541


--------------------------------------------------------------------------------------------------------




--------------------------------------- Iteration      1(  15)  ---------------------------------------


    POTLOK:  cpu time      1.4892: real time      1.4900
    SETDIJ:  cpu time      0.2248: real time      0.2248
    TRIAL :  cpu time      0.2498: real time      0.2498
    CORREC:  cpu time      2.4211: real time      2.4212
    CHARGE:  cpu time      0.6434: real time      0.6435
    --------------------------------------------
      LOOP:  cpu time      5.0352: real time      5.0365

 eigenvalue-minimisations  :     0
 total energy-change (2. order) :-0.9609237E-04  (-0.5780896E-04)
 number of electron      43.9999942 magnetization 
 augmentation part       28.5730271 magnetization 

 Free energy of the ion-electron system (eV)
  ---------------------------------------------------
  alpha Z        PSCENC =         1.18414354
  Ewald energy   TEWEN  =      1143.30920876
  -Hartree energ DENC   =     -6234.41100693
  -exchange      EXHF   =         0.00000000
  -V(xc)+E(xc)   XCENC  =       175.66638949
  PAW double counting   =      5029.67952935    -5453.41396621
  entropy T*S    EENTRO =        -0.00000000
  eigenvalues    EBANDS =      -237.89143206
  atomic energy  EATOM  =      5580.84654338
  ---------------------------------------------------
  free energy    TOTEN  =         4.96940932 eV

  energy without entropy =        4.96940932  energy(sigma->0) =        4.96940932


--------------------------------------------------------------------------------------------------------




--------------------------------------- Iteration      1(  16)  ---------------------------------------


    POTLOK:  cpu time      1.4867: real time      1.4868
    SETDIJ:  cpu time      0.2188: real time      0.2188
    TRIAL :  cpu time      0.2506: real time      0.2506
    CORREC:  cpu time      2.4212: real time      2.4213
    CHARGE:  cpu time      0.6629: real time      0.6630
    --------------------------------------------
      LOOP:  cpu time      5.0470: real time      5.0477

 eigenvalue-minimisations  :     0
 total energy-change (2. order) :-0.5799217E-04  (-0.6449532E-05)
 number of electron      43.9999942 magnetization 
 augmentation part       28.5718516 magnetization 

 Free energy of the ion-electron system (eV)
  ---------------------------------------------------
  alpha Z        PSCENC =         1.18414354
  Ewald energy   TEWEN  =      1143.30920876
  -Hartree energ DENC   =     -6234.60166558
  -exchange      EXHF   =         0.00000000
  -V(xc)+E(xc)   XCENC  =       175.67396286
  PAW double counting   =      5029.95576370    -5453.71909858
  entropy T*S    EENTRO =        -0.00000000
  eigenvalues    EBANDS =      -237.67950674
  atomic energy  EATOM  =      5580.84654338
  ---------------------------------------------------
  free energy    TOTEN  =         4.96935133 eV

  energy without entropy =        4.96935133  energy(sigma->0) =        4.96935133


--------------------------------------------------------------------------------------------------------




--------------------------------------- Iteration      1(  17)  ---------------------------------------


    POTLOK:  cpu time      1.4865: real time      1.4872
    SETDIJ:  cpu time      0.2261: real time      0.2261
    TRIAL :  cpu time      0.2504: real time      0.2504
    CORREC:  cpu time      2.4205: real time      2.4206
    CHARGE:  cpu time      0.6544: real time      0.6544
    --------------------------------------------
      LOOP:  cpu time      5.0399: real time      5.0456

 eigenvalue-minimisations  :     0
 total energy-change (2. order) :-0.6460874E-05  (-0.5471988E-05)
 number of electron      43.9999942 magnetization 
 augmentation part       28.5725257 magnetization 

 Free energy of the ion-electron system (eV)
  ---------------------------------------------------
  alpha Z        PSCENC =         1.18414354
  Ewald energy   TEWEN  =      1143.30920876
  -Hartree energ DENC   =     -6234.46032905
  -exchange      EXHF   =         0.00000000
  -V(xc)+E(xc)   XCENC  =       175.66765942
  PAW double counting   =      5029.88267326    -5453.60016114
  entropy T*S    EENTRO =        -0.00000000
  eigenvalues    EBANDS =      -237.86039330
  atomic energy  EATOM  =      5580.84654338
  ---------------------------------------------------
  free energy    TOTEN  =         4.96934486 eV

  energy without entropy =        4.96934486  energy(sigma->0) =        4.96934486


--------------------------------------------------------------------------------------------------------




--------------------------------------- Iteration      1(  18)  ---------------------------------------


    POTLOK:  cpu time      1.4873: real time      1.4874
    SETDIJ:  cpu time      0.2202: real time      0.2202
    TRIAL :  cpu time      0.2491: real time      0.2491
    CORREC:  cpu time      2.4219: real time      2.4220
    CHARGE:  cpu time      0.6426: real time      0.6431
    --------------------------------------------
      LOOP:  cpu time      5.0287: real time      5.0298

 eigenvalue-minimisations  :     0
 total energy-change (2. order) :-0.5471490E-05  (-0.1516885E-05)
 number of electron      43.9999942 magnetization 
 augmentation part       28.5724397 magnetization 

 Free energy of the ion-electron system (eV)
  ---------------------------------------------------
  alpha Z        PSCENC =         1.18414354
  Ewald energy   TEWEN  =      1143.30920876
  -Hartree energ DENC   =     -6234.56662108
  -exchange      EXHF   =         0.00000000
  -V(xc)+E(xc)   XCENC  =       175.67162519
  PAW double counting   =      5029.97180558    -5453.71827092
  entropy T*S    EENTRO =        -0.00000000
  eigenvalues    EBANDS =      -237.72909505
  atomic energy  EATOM  =      5580.84654338
  ---------------------------------------------------
  free energy    TOTEN  =         4.96933939 eV

  energy without entropy =        4.96933939  energy(sigma->0) =        4.96933939


--------------------------------------------------------------------------------------------------------




--------------------------------------- Iteration      1(  19)  ---------------------------------------


    POTLOK:  cpu time      1.4920: real time      1.4921
    SETDIJ:  cpu time      0.2238: real time      0.2238
    TRIAL :  cpu time      0.2520: real time      0.2520
    CORREC:  cpu time      2.4206: real time      2.4207
    CHARGE:  cpu time      0.6424: real time      0.6425
    --------------------------------------------
      LOOP:  cpu time      5.0337: real time      5.0392

 eigenvalue-minimisations  :     0
 total energy-change (2. order) :-0.1523010E-05  (-0.2095832E-06)
 number of electron      43.9999942 magnetization 
 augmentation part       28.5724984 magnetization 

 Free energy of the ion-electron system (eV)
  ---------------------------------------------------
  alpha Z        PSCENC =         1.18414354
  Ewald energy   TEWEN  =      1143.30920876
  -Hartree energ DENC   =     -6234.52797827
  -exchange      EXHF   =         0.00000000
  -V(xc)+E(xc)   XCENC  =       175.67063859
  PAW double counting   =      5029.94183122    -5453.68546331
  entropy T*S    EENTRO =        -0.00000000
  eigenvalues    EBANDS =      -237.76958603
  atomic energy  EATOM  =      5580.84654338
  ---------------------------------------------------
  free energy    TOTEN  =         4.96933787 eV

  energy without entropy =        4.96933787  energy(sigma->0) =        4.96933787


--------------------------------------------------------------------------------------------------------




--------------------------------------- Iteration      1(  20)  ---------------------------------------


    POTLOK:  cpu time      1.4862: real time      1.4863
    SETDIJ:  cpu time      0.2199: real time      0.2199
    TRIAL :  cpu time      0.2491: real time      0.2491
    CORREC:  cpu time      2.4174: real time      2.4175
    EDDIAG:  cpu time      0.1121: real time      0.1121
    CHARGE:  cpu time      0.6410: real time      0.6416
    --------------------------------------------
      LOOP:  cpu time      5.1326: real time      5.1339

 eigenvalue-minimisations  :     0
 total energy-change (2. order) :-0.2069855E-06  (-0.2311204E-06)
 number of electron      43.9999942 magnetization 
 augmentation part       28.5725030 magnetization 

 Free energy of the ion-electron system (eV)
  ---------------------------------------------------
  alpha Z        PSCENC =         1.18414354
  Ewald energy   TEWEN  =      1143.30920876
  -Hartree energ DENC   =     -6234.53225658
  -exchange      EXHF   =         0.00000000
  -V(xc)+E(xc)   XCENC  =       175.67092857
  PAW double counting   =      5029.94960358    -5453.69556173
  entropy T*S    EENTRO =        -0.00000000
  eigenvalues    EBANDS =      -237.76327184
  atomic energy  EATOM  =      5580.84654338
  ---------------------------------------------------
  free energy    TOTEN  =         4.96933766 eV

  energy without entropy =        4.96933766  energy(sigma->0) =        4.96933766


--------------------------------------------------------------------------------------------------------


  average scaling for gradient   1.3307


 average (electrostatic) potential at core
  the test charge radii are     0.9430
  (the norm of the test charge is              1.0000)
       1 -73.5926       2 -73.6817       3 -73.6817       4 -73.5926



 E-fermi :  -4.6702     XC(G=0):  -0.3566     alpha+bet : -0.0642

 Fermi energy:        -4.6701969742

 k-point     1 :       0.0000    0.0000    0.0000
  band No.  band energies     occupation 
      1      -6.8457      2.00000
      2      -6.3885      2.00000
      3      -5.8024      2.00000
      4      -5.8024      2.00000
      5      -5.7371      2.00000
      6      -5.7370      2.00000
      7      -5.4436      2.00000
      8      -5.3428      2.00000
      9      -5.3428      2.00000
     10      -5.3333      2.00000
     11      -5.3333      2.00000
     12      -5.2773      2.00000
     13      -5.1441      2.00000
     14      -5.1441      2.00000
     15      -5.1167      2.00000
     16      -5.1167      2.00000
     17      -5.0682      2.00000
     18      -5.0682      2.00000
     19      -5.0367      2.00000
     20      -4.9344      2.00000
     21      -4.9330      2.00000
     22      -4.9328      2.00000
     23      -4.1542      0.00000
     24      -2.5918      0.00000
     25      -1.5889      0.00000
     26      -1.5889      0.00000
     27      -1.0773      0.00000
     28      -1.0745      0.00000
     29      -1.0026      0.00000
     30      -0.2022      0.00000
     31       0.0368      0.00000
     32       0.0810      0.00000
     33       0.1116      0.00000
     34       0.1121      0.00000
     35       0.1696      0.00000
     36       0.1875      0.00000
     37       0.2574      0.00000
     38       0.2781      0.00000
     39       0.4337      0.00000
     40       0.4639      0.00000
     41       0.4777      0.00000
     42       0.4885      0.00000
     43       0.4968      0.00000
     44       0.5241      0.00000
     45       0.5385      0.00000
     46       0.5390      0.00000
     47       0.5508      0.00000
     48       0.5986      0.00000
     49       0.6001      0.00000
     50       0.6509      0.00000
     51       0.8227      0.00000
     52       0.8294      0.00000
     53       0.8462      0.00000
     54       0.8728      0.00000
     55       0.8752      0.00000
     56       0.8912      0.00000
     57       0.9571      0.00000
     58       0.9861      0.00000
     59       1.0128      0.00000
     60       1.0410      0.00000
     61       1.1340      0.00000
     62       1.1530      0.00000
     63       1.1751      0.00000
     64       1.1876      0.00000
     65       1.2002      0.00000
     66       1.2753      0.00000
     67       1.2784      0.00000
     68       1.2977      0.00000
     69       1.3148      0.00000
     70       1.3211      0.00000
     71       1.3437      0.00000
     72       1.4160      0.00000
     73       1.4232      0.00000
     74       1.4322      0.00000
     75       1.4728      0.00000
     76       1.4750      0.00000
     77       1.4803      0.00000
     78       1.4851      0.00000
     79       1.5215      0.00000
     80       1.5612      0.00000
     81       1.5737      0.00000
     82       1.5764      0.00000
     83       1.6041      0.00000
     84       1.6054      0.00000
     85       1.6198      0.00000
     86       1.6481      0.00000
     87       1.6674      0.00000
     88       1.6717      0.00000
     89       1.6893      0.00000
     90       1.7054      0.00000
     91       1.7706      0.00000
     92       1.7887      0.00000
     93       1.7889      0.00000
     94       1.7984      0.00000
     95       1.8167      0.00000
     96       1.8246      0.00000


--------------------------------------------------------------------------------------------------------


 soft charge-density along one line, spin component           1
         0         1         2         3         4         5         6         7         8         9
 total charge-density along one line

 pseudopotential strength for first ion, spin component:           1
-10.221   0.001  -0.039  -0.001  -0.000   0.755  -0.000   0.029
  0.001 -10.183  -0.000   0.030   0.001  -0.000   0.727   0.000
 -0.039  -0.000 -10.175   0.000  -0.000   0.029   0.000   0.721
 -0.001   0.030   0.000 -10.183   0.001   0.000  -0.023  -0.000
 -0.000   0.001  -0.000   0.001 -10.213   0.000  -0.000   0.000
  0.755  -0.000   0.029   0.000   0.000   6.490   0.000  -0.017
 -0.000   0.727   0.000  -0.023  -0.000   0.000   6.506  -0.000
  0.029   0.000   0.721  -0.000   0.000  -0.017  -0.000   6.510
  0.000  -0.023  -0.000   0.727  -0.000  -0.000   0.014   0.000
  0.000  -0.000   0.000  -0.000   0.750  -0.000   0.000  -0.000
 -0.010   0.000  -0.006  -0.000  -0.000  -0.003   0.000  -0.002
 -0.017   0.000  -0.010  -0.000  -0.000  -0.007   0.000  -0.004
  0.016  -0.000   0.009  -0.000   0.017  -0.009   0.000  -0.005
 -0.000  -0.017  -0.000   0.017   0.000   0.000   0.009   0.000
 -0.016  -0.000  -0.009  -0.000   0.017   0.009   0.000   0.005
  0.018  -0.000   0.011  -0.000   0.019  -0.009   0.000  -0.005
 -0.000  -0.019  -0.000   0.019  -0.000   0.000   0.008   0.000
 -0.018  -0.000  -0.011  -0.000   0.019   0.009   0.000   0.005
 total augmentation occupancy for first ion, spin component:           1
  1.972   0.000  -0.011  -0.000   0.000   0.007  -0.000   0.013   0.000  -0.000   0.095   0.005  -0.042  -0.001   0.042   0.021
  0.000   1.984  -0.000   0.007   0.000  -0.000  -0.010  -0.000  -0.006  -0.000  -0.002   0.000   0.002   0.025  -0.001  -0.001
 -0.011  -0.000   1.984   0.000  -0.000   0.013  -0.000  -0.009   0.000   0.000   0.055   0.003  -0.024   0.000   0.024   0.012
 -0.000   0.007   0.000   1.984   0.000   0.000  -0.006   0.000  -0.010  -0.000   0.002  -0.000  -0.001  -0.025   0.002   0.000
  0.000   0.000  -0.000   0.000   1.977  -0.000  -0.000   0.000  -0.000  -0.004  -0.000  -0.000  -0.025  -0.000  -0.025   0.022
  0.007  -0.000   0.013   0.000  -0.000   0.006  -0.000   0.003   0.000  -0.000  -0.074   0.004  -0.010  -0.000   0.010   0.001
 -0.000  -0.010  -0.000  -0.006  -0.000  -0.000   0.001  -0.000  -0.001  -0.000   0.001  -0.000   0.000   0.003  -0.000  -0.000
  0.013  -0.000  -0.009   0.000   0.000   0.003  -0.000   0.002   0.000  -0.000  -0.043   0.002  -0.006  -0.000   0.006   0.001
  0.000  -0.006   0.000  -0.010  -0.000   0.000  -0.001   0.000   0.001  -0.000  -0.001   0.000  -0.000  -0.003   0.000   0.000
 -0.000  -0.000   0.000  -0.000  -0.004  -0.000  -0.000  -0.000  -0.000   0.003   0.000  -0.000  -0.003   0.000  -0.003   0.000
  0.095  -0.002   0.055   0.002  -0.000  -0.074   0.001  -0.043  -0.001   0.000   1.434  -0.063   0.128   0.003  -0.128  -0.011
  0.005   0.000   0.003  -0.000  -0.000   0.004  -0.000   0.002   0.000  -0.000  -0.063   0.003  -0.006  -0.000   0.006   0.001
 -0.042   0.002  -0.024  -0.001  -0.025  -0.010   0.000  -0.006  -0.000  -0.003   0.128  -0.006   0.037   0.000  -0.026  -0.003
 -0.001   0.025   0.000  -0.025  -0.000  -0.000   0.003  -0.000  -0.003   0.000   0.003  -0.000   0.000   0.010  -0.000  -0.000
  0.042  -0.001   0.024   0.002  -0.025   0.010  -0.000   0.006   0.000  -0.003  -0.128   0.006  -0.026  -0.000   0.037   0.002
  0.021  -0.001   0.012   0.000   0.022   0.001  -0.000   0.001   0.000   0.000  -0.011   0.001  -0.003  -0.000   0.002   0.001
  0.000  -0.022  -0.001   0.022   0.000   0.000  -0.000   0.000   0.000  -0.000  -0.000   0.000  -0.000  -0.001   0.000   0.000
 -0.021   0.000  -0.012  -0.001   0.022  -0.001   0.000  -0.001  -0.000   0.000   0.011  -0.001   0.002   0.000  -0.003  -0.000


------------------------ aborting loop because EDIFF is reached ----------------------------------------


    FORLOC:  cpu time      0.0029: real time      0.0029
    FORNL :  cpu time      0.1298: real time      0.1298
    STRESS:  cpu time      0.3898: real time      0.3899
    FORCOR:  cpu time      1.4508: real time      1.4509
    OFIELD:  cpu time      0.0003: real time      0.0003

  FORCE on cell =-STRESS in cart. coord.  units (eV):
  Direction    XX          YY          ZZ          XY          YZ          ZX
  --------------------------------------------------------------------------------------
  Alpha Z     1.18414     1.18414     1.18414
  Ewald     915.52544   915.52437  -687.74104 -1388.75739    -0.00018    -0.00008
  Hartree  2534.72319  2534.72272  1165.08862 -1157.78318    -0.00010    -0.00005
  E(xc)    -256.46647  -256.46647  -256.92478    -0.45841    -0.00000    -0.00000
  Local   -3815.65057 -3815.64910  -853.74998  2535.53814     0.00028     0.00014
  n-local  -113.44242  -113.44239  -110.55485     2.88872     0.00001     0.00002
  augment   368.96381   368.96383   373.64169     4.67811     0.00004     0.00004
  Kinetic   362.95670   362.95675   369.03345     6.07675     0.00000    -0.00000
  Fock        0.00000     0.00000     0.00000     0.00000     0.00000     0.00000
  -------------------------------------------------------------------------------------
  Total      -2.20617    -2.20617    -0.02274     2.18275     0.00000     0.00000
  in kB      -0.35770    -0.35770    -0.00369     0.35390     0.00000     0.00000
  external pressure =       -0.24 kB  Pullay stress =        0.00 kB


 VOLUME and BASIS-vectors are now :
 -----------------------------------------------------------------------------
  energy-cutoff  :      520.00
  volume of cell :     9881.61
      direct lattice vectors                 reciprocal lattice vectors
    21.138852197  0.000000000  0.000000000     0.047306258  0.000000000  0.000000000
     0.000000000 21.138852197  0.000000000     0.000000000  0.047306258  0.000000000
     0.000000000  0.000000000 22.113885220     0.000000000  0.000000000  0.045220457

  length of vectors
    21.138852197 21.138852197 22.113885220     0.047306258  0.047306258  0.045220457


 FORCES acting on ions:
    Electron-Ion                     Ewald-Force                    Non-Local-Force
 -----------------------------------------------------------------------------------------------
   -.669E+02 0.668E+02 0.508E+01   0.605E+02 -.605E+02 -.489E+01   0.637E+01 -.637E+01 -.177E+00
   0.291E+03 -.291E+03 -.506E+01   -.283E+03 0.283E+03 0.489E+01   -.812E+01 0.812E+01 0.156E+00
   -.291E+03 0.291E+03 -.506E+01   0.283E+03 -.283E+03 0.489E+01   0.812E+01 -.812E+01 0.156E+00
   0.668E+02 -.669E+02 0.508E+01   -.605E+02 0.605E+02 -.489E+01   -.637E+01 0.637E+01 -.177E+00
 -----------------------------------------------------------------------------------------------
   -.124E-01 -.103E-01 0.404E-01   0.000E+00 0.000E+00 0.000E+00   0.178E-14 0.000E+00 -.415E-01


 POSITION                                       TOTAL-FORCE (eV/Angst)
 -----------------------------------------------------------------------------------
      8.42022     12.71964     13.21830        -0.121257      0.121257      0.007820
      6.77748     14.36235     13.25117         0.449610     -0.449610     -0.007820
     12.24845      8.89138     13.25117        -0.449610      0.449610     -0.007820
     10.60574     10.53411     13.21830         0.121257     -0.121257      0.007820
 -----------------------------------------------------------------------------------
    total drift:                               -0.012358     -0.010256     -0.001141


--------------------------------------------------------------------------------------------------------



  FREE ENERGIE OF THE ION-ELECTRON SYSTEM (eV)
  ---------------------------------------------------
  free  energy   TOTEN  =         4.96933766 eV

  energy  without entropy=        4.96933766  energy(sigma->0) =        4.96933766



--------------------------------------------------------------------------------------------------------


    POTLOK:  cpu time      1.7309: real time      1.7310


--------------------------------------------------------------------------------------------------------


     LOOP+:  cpu time     87.8556: real time     87.9727
    4ORBIT:  cpu time      0.0000: real time      0.0000

 total amount of memory used by VASP MPI-rank0   118517. kBytes
=======================================================================

   base      :      30000. kBytes
   nonlr-proj:       1542. kBytes
   fftplans  :      35474. kBytes
   grid      :      48291. kBytes
   one-center:         15. kBytes
   wavefun   :       3195. kBytes

  
  
 General timing and accounting informations for this job:
 ========================================================
  
                  Total CPU time used (sec):      111.164
                            User time (sec):      109.372
                          System time (sec):        1.792
                         Elapsed time (sec):      113.132
  
                   Maximum memory used (kb):      374312.
                   Average memory used (kb):          N/A
  
                          Minor page faults:        60135
                          Major page faults:            0
                 Voluntary context switches:         9973
