 **********************************************************************
                          MRCC program system
 **********************************************************************
 
                              Written by
     Mihaly Kallay, Peter R. Nagy, David Mester, Laszlo Gyevi-Nagy,
        Jozsef Csoka, P. Bernat Szabo, Zoltan Rolik, Gyula Samu,
     Jozsef Csontos, Bence Hegely, Adam Ganyecz, Istvan Ladjanszki,
       Lorant Szegedy, Bence Ladoczki, Klara Petrov, Mate Farkas,
                    Pal D. Mezei, and Reka A. Horvath
 
        Department of Physical Chemistry and Materials Science
            Budapest University of Technology and Economics
                  Budapest P.O.Box 91, H-1521 Hungary
 
                              www.mrcc.hu
 
                      Release date: March 18, 2022

 ************************ 2023-02-04 10:26:51 *************************
 Executing minp...

 Reading input from MINP...
 
 Input file:
 
calc=FNO-CCSD(T)
verbosity=3
mem=220GB
unit=angs
scfiguess=small
scfalg=locfit1
ccmaxit=400
ccsdalg=dfdirect
ccsdthreads=4
ccsdmkl=thr
ptthreads=4
lnoepsv=1e-5
naf_cor=1e-2
ECP=MCDHF-ECP-60
basis=bse_ACVTZ
basis_sm=def2-SVP
dfbasis_scf=def2-QZVPP-RI-JK
dfbasis_cor=bse_ACVTZ_mp2fit
core=0
unit=angs
geom=xyz
    8
Au8_2
Au     0.50652618    -2.26524839     0.04411939
Au    -1.61415922    -0.86697676    -1.00690795
Au    -1.11023441    -0.70430321     1.62532233
Au     0.19931696     1.48865661     2.56424221
Au     1.82171882    -0.06123978     1.02518663
Au    -0.32737846     1.46384761    -0.02836281
Au     1.31673642    -0.22364622    -1.60720313
Au    -0.79252629     1.16891013    -2.61639666

ghost=serialno


 
 
 Checking keyword combinations...
 
 Keywords:
 
 active=none
 agrid=ld0006-ld0590
 agrid_pssp=ld0006-ld0194
 agrid_pssp_sm=ld0006-ld0074
 basis=bse_acvtz
 basis_sm=def2-svp
 basopt=off
 bfbasis=none
 bfgsmem=10
 bfgstol=1.0d-3
 bpcompo=0.985
 bpcompv=0.98
 bpdfo=0.985
 bpocc=0.985
 bppdo=0.985
 bppdv=0.98
 bpedo=0.985
 bpedv=0.98
 calc=ccsd(t)
 ccmaxit=400
 ccprog=ccsd
 ccsdalg=dfdirect
 ccsdmkl=thr
 ccsdrest=trf
 ccsdthreads=4
 cctol=6
 charge=0
 cialg=auto
 ciguess=off
 cmpgrp=auto
 comprest=off
 core=corr
 corembed=off
 csapprox=off
 cvs=off
 dboc=off
 delocsomofact=
 dendec=cholesky
 dens=0
 dfalg=lineq
 dfbasis_cab=none
 dfbasis_cor=bse_acvtz_mp2fit
 dfbasis_scf=def2-qzvpp-ri-jk
 dfbasis_scf_sm=def2-qzvpp-ri-jk
 dfintran=drpa
 dft=off
 dhexc=adc(2)
 diag=david
 docc=
 domrad=10.d0
 drpaalg=fit
 dual=off
 dual_df=off
 ecp=mcdhf-ecp-60
 edisp=off
 edisp_embed=off
 embed=off
 etemp=300
 epert=none
 eps=
 espcharge=off
 excrad=1.0
 excrad_fin=0.100000000D-02
 fitting=coulomb
 fmm=off
 fmmord=8
 freq=off
 gamma=1.d0
 gauss=spher
 geom=xyz
 gopt=off
 ghost=serialno
 gtol=7
 grdens=off
 gridbatch_cos=2000
 grtol=10
 guido_ct=off
 hamilton=dc
 iface=none
 intalg=auto
 itol=10
 laptol=1.d-2
 lccoporder=trffirst
 lcorthr=normal
 lccrest=off
 lmp2dens=on
 lnoepso=0.d0
 lnoepsv=1e-5
 boysalg=jacobi
 localcc=off
 localcorrsymm=off
 locintrf=disk
 mact=
 maxact=off
 maxdim=100
 maxex=0
 maxmicroit=100
 mcscfiguess=hf
 mem=220gb
 mmprog=
 molden=on
 mpitasks=1
 mulmet=0
 mult=
 nacto=0
 nactv=0
 naf_amp=1.d-2
 naf_cor=1e-2
 naf_scf=off
 nafalg=albe
 naftyp=
 nchol=auto
 ndeps=1e-3
 nstate=1
 nsing=0
 nto=off
 ntrip=0
 occ=
 occri=off
 oniom=off
 oniom_eechg=off
 oniom_pcm=off
 oniom_qcorr=off
 optalg=
 optmaxit=50
 optetol=1e-6
 optex=0
 optgtol=1e-4
 optstol=1e-3
 orblocc=off
 orbloce=off
 orbloco=off
 orblocv=off
 orblocguess=cholesky
 osveps=1e-3
 ovirt=ppl
 ovltol=1e-7
 ovosnorb=80.0
 pcm=off
 popul=off
 pressure=100000
 pssp=off
 ptfreq=0.0
 ptthreads=4
 qro=off
 qscf=off
 qmmm=off
 redcost_exc=off
 redcost_tddft=off
 refdet=none
 rest=0
 rgrid=log3
 rism=off
 rohfcore=semicanonical
 rohftype=semicanonical
 scfalg=locfit1
 scf_conv=difficult
 scfdamp=0.0d0
 scfdamp_mode=off
 scfdamp_end=50
 scfdamp_dampstep=0.d0
 scfdamp_dtol=0.0d0
 scfdamp_maxfact=0.0d0
 scfdamp_minfact=0.0d0
 scfdiis=on
 scfdiis_dtol=0.0d0
 scfdiis_end=50
 scfdiis_start=2
 scfdiis_step=1
 scfdiis_watch=off
 scfdiis_wrange=10
 scfdiis_wlimit=5
 scfdiis_delmax=2
 scfdtol=7
 scfext=10
 scfguessdens=
 scfiguess=small
 scfloc=pm
 scflshift=0.20
 scflshift_end=8
 scflshift_dtol=0.0
 scflshift_gaptol=0.20
 scfmaxit=50
 scftype=
 scftol=6
 scspe=1.d0
 scsph=1.d0
 scsps=1.2d0
 scsps_t=1.2d0
 scspt=0.33333333333333
 scspt_t=0.33333333333333
 scspv=1.d0
 spairtol=1e-4
 sqmprog=
 subminp=top
 symm=
 talg=occ
 temp=298.15
 test=off
 theodore=off
 tlmo=0.999
 tpao=0.94
 tprint=off
 uncontract=off
 unit=angs
 usedisk=2
 verbosity=3
 wpairtol=0.100000000E-05
 
 Calculating integrals for small-basis SCF...

 ************************ 2023-02-04 10:26:51 *************************
 Executing integ...

 Allocation of 220.0 Gbytes of memory...
 
 
 Number of atoms:                  8
 Charge:                           0
 Number of electrons:            152
 Number of core electrons:         0
 Spin multiplicity:                1
 
                 Cartesian coordinates [bohr]      Atomic mass [AMU]  Z
   1  Au    0.95719576   -4.28069906    0.08337356   196.966543      79
   2  Au   -3.05031885   -1.63834863   -1.90278026   196.966543      79
   3  Au   -2.09803897   -1.33094018    3.07141407   196.966543      79
   4  Au    0.37665447    2.81315329    4.84571550   196.966543      79
   5  Au    3.44254965   -0.11572641    1.93732196   196.966543      79
   6  Au   -0.61865563    2.76627107   -0.05359794   196.966543      79
   7  Au    2.48827121   -0.42263010   -3.03717374   196.966543      79
   8  Au   -1.49765764    2.20892001   -4.94427312   196.966543      79
 
 This molecule is an asymmetric top.
 
 Point group: C1  
 Computational point group: C1  
 
 Cartesian coordinates in standard orientation [bohr]
   1  Au    0.00573669   -4.38720029   -0.00004456
   2  Au   -2.53722174   -0.90024788    2.89158497
   3  Au    2.53662549   -0.89596369    2.89301466
   4  Au    4.98949917    2.57712174    0.00046351
   5  Au    2.53994449   -0.89747567   -2.89153531
   6  Au   -0.00345126    2.83511045    0.00017677
   7  Au   -2.53454400   -0.90082643   -2.89121647
   8  Au   -4.99658885    2.56948178   -0.00244357
 
 Nuclear repulsion energy [au]:       1668.401016238949
 
 
 Basis set information:
 
 Maximum angular momentum: i
 Maximum number of contracted Gaussians:   13
 Maximum number of primitive Gaussians:    13
 Spherical harmonic GTOs are used.
 
 
 Conventional basis set:
 
   1  Au def2-svp [ 7s 6p 5d 1f | 6s 3p 2d 1f ]
   2  Au def2-svp [ 7s 6p 5d 1f | 6s 3p 2d 1f ]
   3  Au def2-svp [ 7s 6p 5d 1f | 6s 3p 2d 1f ]
   4  Au def2-svp [ 7s 6p 5d 1f | 6s 3p 2d 1f ]
   5  Au def2-svp [ 7s 6p 5d 1f | 6s 3p 2d 1f ]
   6  Au def2-svp [ 7s 6p 5d 1f | 6s 3p 2d 1f ]
   7  Au def2-svp [ 7s 6p 5d 1f | 6s 3p 2d 1f ]
   8  Au def2-svp [ 7s 6p 5d 1f | 6s 3p 2d 1f ]
 
 Basis functions:
            1             2             3             4             5             6             7             8             9            10
    0    1Au1s         1Au2s         1Au3s         1Au4s         1Au5s         1Au6s         1Au1pz        1Au1py        1Au1px        1Au2pz    
    1    1Au2py        1Au2px        1Au3pz        1Au3py        1Au3px        1Au1d-2       1Au1d-1       1Au1d0        1Au1d+1       1Au1d+2   
    2    1Au2d-2       1Au2d-1       1Au2d0        1Au2d+1       1Au2d+2       1Au1f-3       1Au1f-2       1Au1f-1       1Au1f0        1Au1f+1   
    3    1Au1f+2       1Au1f+3       2Au1s         2Au2s         2Au3s         2Au4s         2Au5s         2Au6s         2Au1pz        2Au1py    
    4    2Au1px        2Au2pz        2Au2py        2Au2px        2Au3pz        2Au3py        2Au3px        2Au1d-2       2Au1d-1       2Au1d0    
    5    2Au1d+1       2Au1d+2       2Au2d-2       2Au2d-1       2Au2d0        2Au2d+1       2Au2d+2       2Au1f-3       2Au1f-2       2Au1f-1   
    6    2Au1f0        2Au1f+1       2Au1f+2       2Au1f+3       3Au1s         3Au2s         3Au3s         3Au4s         3Au5s         3Au6s     
    7    3Au1pz        3Au1py        3Au1px        3Au2pz        3Au2py        3Au2px        3Au3pz        3Au3py        3Au3px        3Au1d-2   
    8    3Au1d-1       3Au1d0        3Au1d+1       3Au1d+2       3Au2d-2       3Au2d-1       3Au2d0        3Au2d+1       3Au2d+2       3Au1f-3   
    9    3Au1f-2       3Au1f-1       3Au1f0        3Au1f+1       3Au1f+2       3Au1f+3       4Au1s         4Au2s         4Au3s         4Au4s     
   10    4Au5s         4Au6s         4Au1pz        4Au1py        4Au1px        4Au2pz        4Au2py        4Au2px        4Au3pz        4Au3py    
   11    4Au3px        4Au1d-2       4Au1d-1       4Au1d0        4Au1d+1       4Au1d+2       4Au2d-2       4Au2d-1       4Au2d0        4Au2d+1   
   12    4Au2d+2       4Au1f-3       4Au1f-2       4Au1f-1       4Au1f0        4Au1f+1       4Au1f+2       4Au1f+3       5Au1s         5Au2s     
   13    5Au3s         5Au4s         5Au5s         5Au6s         5Au1pz        5Au1py        5Au1px        5Au2pz        5Au2py        5Au2px    
   14    5Au3pz        5Au3py        5Au3px        5Au1d-2       5Au1d-1       5Au1d0        5Au1d+1       5Au1d+2       5Au2d-2       5Au2d-1   
   15    5Au2d0        5Au2d+1       5Au2d+2       5Au1f-3       5Au1f-2       5Au1f-1       5Au1f0        5Au1f+1       5Au1f+2       5Au1f+3   
   16    6Au1s         6Au2s         6Au3s         6Au4s         6Au5s         6Au6s         6Au1pz        6Au1py        6Au1px        6Au2pz    
   17    6Au2py        6Au2px        6Au3pz        6Au3py        6Au3px        6Au1d-2       6Au1d-1       6Au1d0        6Au1d+1       6Au1d+2   
   18    6Au2d-2       6Au2d-1       6Au2d0        6Au2d+1       6Au2d+2       6Au1f-3       6Au1f-2       6Au1f-1       6Au1f0        6Au1f+1   
   19    6Au1f+2       6Au1f+3       7Au1s         7Au2s         7Au3s         7Au4s         7Au5s         7Au6s         7Au1pz        7Au1py    
   20    7Au1px        7Au2pz        7Au2py        7Au2px        7Au3pz        7Au3py        7Au3px        7Au1d-2       7Au1d-1       7Au1d0    
   21    7Au1d+1       7Au1d+2       7Au2d-2       7Au2d-1       7Au2d0        7Au2d+1       7Au2d+2       7Au1f-3       7Au1f-2       7Au1f-1   
   22    7Au1f0        7Au1f+1       7Au1f+2       7Au1f+3       8Au1s         8Au2s         8Au3s         8Au4s         8Au5s         8Au6s     
   23    8Au1pz        8Au1py        8Au1px        8Au2pz        8Au2py        8Au2px        8Au3pz        8Au3py        8Au3px        8Au1d-2   
   24    8Au1d-1       8Au1d0        8Au1d+1       8Au1d+2       8Au2d-2       8Au2d-1       8Au2d0        8Au2d+1       8Au2d+2       8Au1f-3   
   25    8Au1f-2       8Au1f-1       8Au1f0        8Au1f+1       8Au1f+2       8Au1f+3   
 
 Maximum number of basis functions per shell:   10
 Total number of basis functions:    256
 
 
 Fitting basis set for the SCF calculation:
 
   1  Au def2-qzvpp-ri-jk [ 13s 12p 11d 9f 5g 3h 2i | 13s 11p 10d 8f 4g 3h 2i ]
   2  Au def2-qzvpp-ri-jk [ 13s 12p 11d 9f 5g 3h 2i | 13s 11p 10d 8f 4g 3h 2i ]
   3  Au def2-qzvpp-ri-jk [ 13s 12p 11d 9f 5g 3h 2i | 13s 11p 10d 8f 4g 3h 2i ]
   4  Au def2-qzvpp-ri-jk [ 13s 12p 11d 9f 5g 3h 2i | 13s 11p 10d 8f 4g 3h 2i ]
   5  Au def2-qzvpp-ri-jk [ 13s 12p 11d 9f 5g 3h 2i | 13s 11p 10d 8f 4g 3h 2i ]
   6  Au def2-qzvpp-ri-jk [ 13s 12p 11d 9f 5g 3h 2i | 13s 11p 10d 8f 4g 3h 2i ]
   7  Au def2-qzvpp-ri-jk [ 13s 12p 11d 9f 5g 3h 2i | 13s 11p 10d 8f 4g 3h 2i ]
   8  Au def2-qzvpp-ri-jk [ 13s 12p 11d 9f 5g 3h 2i | 13s 11p 10d 8f 4g 3h 2i ]
 
 Basis functions:
            1             2             3             4             5             6             7             8             9            10
    0    1Au1s         1Au2s         1Au3s         1Au4s         1Au5s         1Au6s         1Au7s         1Au8s         1Au9s         1Au10s    
    1    1Au11s        1Au12s        1Au13s        1Au1pz        1Au1py        1Au1px        1Au2pz        1Au2py        1Au2px        1Au3pz    
    2    1Au3py        1Au3px        1Au4pz        1Au4py        1Au4px        1Au5pz        1Au5py        1Au5px        1Au6pz        1Au6py    
    3    1Au6px        1Au7pz        1Au7py        1Au7px        1Au8pz        1Au8py        1Au8px        1Au9pz        1Au9py        1Au9px    
    4    1Au10pz       1Au10py       1Au10px       1Au11pz       1Au11py       1Au11px       1Au1d-2       1Au1d-1       1Au1d0        1Au1d+1   
    5    1Au1d+2       1Au2d-2       1Au2d-1       1Au2d0        1Au2d+1       1Au2d+2       1Au3d-2       1Au3d-1       1Au3d0        1Au3d+1   
    6    1Au3d+2       1Au4d-2       1Au4d-1       1Au4d0        1Au4d+1       1Au4d+2       1Au5d-2       1Au5d-1       1Au5d0        1Au5d+1   
    7    1Au5d+2       1Au6d-2       1Au6d-1       1Au6d0        1Au6d+1       1Au6d+2       1Au7d-2       1Au7d-1       1Au7d0        1Au7d+1   
    8    1Au7d+2       1Au8d-2       1Au8d-1       1Au8d0        1Au8d+1       1Au8d+2       1Au9d-2       1Au9d-1       1Au9d0        1Au9d+1   
    9    1Au9d+2       1Au10d-2      1Au10d-1      1Au10d0       1Au10d+1      1Au10d+2      1Au1f-3       1Au1f-2       1Au1f-1       1Au1f0    
   10    1Au1f+1       1Au1f+2       1Au1f+3       1Au2f-3       1Au2f-2       1Au2f-1       1Au2f0        1Au2f+1       1Au2f+2       1Au2f+3   
   11    1Au3f-3       1Au3f-2       1Au3f-1       1Au3f0        1Au3f+1       1Au3f+2       1Au3f+3       1Au4f-3       1Au4f-2       1Au4f-1   
   12    1Au4f0        1Au4f+1       1Au4f+2       1Au4f+3       1Au5f-3       1Au5f-2       1Au5f-1       1Au5f0        1Au5f+1       1Au5f+2   
   13    1Au5f+3       1Au6f-3       1Au6f-2       1Au6f-1       1Au6f0        1Au6f+1       1Au6f+2       1Au6f+3       1Au7f-3       1Au7f-2   
   14    1Au7f-1       1Au7f0        1Au7f+1       1Au7f+2       1Au7f+3       1Au8f-3       1Au8f-2       1Au8f-1       1Au8f0        1Au8f+1   
   15    1Au8f+2       1Au8f+3       1Au1g-4       1Au1g-3       1Au1g-2       1Au1g-1       1Au1g0        1Au1g+1       1Au1g+2       1Au1g+3   
   16    1Au1g+4       1Au2g-4       1Au2g-3       1Au2g-2       1Au2g-1       1Au2g0        1Au2g+1       1Au2g+2       1Au2g+3       1Au2g+4   
   17    1Au3g-4       1Au3g-3       1Au3g-2       1Au3g-1       1Au3g0        1Au3g+1       1Au3g+2       1Au3g+3       1Au3g+4       1Au4g-4   
   18    1Au4g-3       1Au4g-2       1Au4g-1       1Au4g0        1Au4g+1       1Au4g+2       1Au4g+3       1Au4g+4       1Au1h-5       1Au1h-4   
   19    1Au1h-3       1Au1h-2       1Au1h-1       1Au1h0        1Au1h+1       1Au1h+2       1Au1h+3       1Au1h+4       1Au1h+5       1Au2h-5   
   20    1Au2h-4       1Au2h-3       1Au2h-2       1Au2h-1       1Au2h0        1Au2h+1       1Au2h+2       1Au2h+3       1Au2h+4       1Au2h+5   
   21    1Au3h-5       1Au3h-4       1Au3h-3       1Au3h-2       1Au3h-1       1Au3h0        1Au3h+1       1Au3h+2       1Au3h+3       1Au3h+4   
   22    1Au3h+5       1Au1i-6       1Au1i-5       1Au1i-4       1Au1i-3       1Au1i-2       1Au1i-1       1Au1i0        1Au1i+1       1Au1i+2   
   23    1Au1i+3       1Au1i+4       1Au1i+5       1Au1i+6       1Au2i-6       1Au2i-5       1Au2i-4       1Au2i-3       1Au2i-2       1Au2i-1   
   24    1Au2i0        1Au2i+1       1Au2i+2       1Au2i+3       1Au2i+4       1Au2i+5       1Au2i+6       2Au1s         2Au2s         2Au3s     
   25    2Au4s         2Au5s         2Au6s         2Au7s         2Au8s         2Au9s         2Au10s        2Au11s        2Au12s        2Au13s    
   26    2Au1pz        2Au1py        2Au1px        2Au2pz        2Au2py        2Au2px        2Au3pz        2Au3py        2Au3px        2Au4pz    
   27    2Au4py        2Au4px        2Au5pz        2Au5py        2Au5px        2Au6pz        2Au6py        2Au6px        2Au7pz        2Au7py    
   28    2Au7px        2Au8pz        2Au8py        2Au8px        2Au9pz        2Au9py        2Au9px        2Au10pz       2Au10py       2Au10px   
   29    2Au11pz       2Au11py       2Au11px       2Au1d-2       2Au1d-1       2Au1d0        2Au1d+1       2Au1d+2       2Au2d-2       2Au2d-1   
   30    2Au2d0        2Au2d+1       2Au2d+2       2Au3d-2       2Au3d-1       2Au3d0        2Au3d+1       2Au3d+2       2Au4d-2       2Au4d-1   
   31    2Au4d0        2Au4d+1       2Au4d+2       2Au5d-2       2Au5d-1       2Au5d0        2Au5d+1       2Au5d+2       2Au6d-2       2Au6d-1   
   32    2Au6d0        2Au6d+1       2Au6d+2       2Au7d-2       2Au7d-1       2Au7d0        2Au7d+1       2Au7d+2       2Au8d-2       2Au8d-1   
   33    2Au8d0        2Au8d+1       2Au8d+2       2Au9d-2       2Au9d-1       2Au9d0        2Au9d+1       2Au9d+2       2Au10d-2      2Au10d-1  
   34    2Au10d0       2Au10d+1      2Au10d+2      2Au1f-3       2Au1f-2       2Au1f-1       2Au1f0        2Au1f+1       2Au1f+2       2Au1f+3   
   35    2Au2f-3       2Au2f-2       2Au2f-1       2Au2f0        2Au2f+1       2Au2f+2       2Au2f+3       2Au3f-3       2Au3f-2       2Au3f-1   
   36    2Au3f0        2Au3f+1       2Au3f+2       2Au3f+3       2Au4f-3       2Au4f-2       2Au4f-1       2Au4f0        2Au4f+1       2Au4f+2   
   37    2Au4f+3       2Au5f-3       2Au5f-2       2Au5f-1       2Au5f0        2Au5f+1       2Au5f+2       2Au5f+3       2Au6f-3       2Au6f-2   
   38    2Au6f-1       2Au6f0        2Au6f+1       2Au6f+2       2Au6f+3       2Au7f-3       2Au7f-2       2Au7f-1       2Au7f0        2Au7f+1   
   39    2Au7f+2       2Au7f+3       2Au8f-3       2Au8f-2       2Au8f-1       2Au8f0        2Au8f+1       2Au8f+2       2Au8f+3       2Au1g-4   
   40    2Au1g-3       2Au1g-2       2Au1g-1       2Au1g0        2Au1g+1       2Au1g+2       2Au1g+3       2Au1g+4       2Au2g-4       2Au2g-3   
   41    2Au2g-2       2Au2g-1       2Au2g0        2Au2g+1       2Au2g+2       2Au2g+3       2Au2g+4       2Au3g-4       2Au3g-3       2Au3g-2   
   42    2Au3g-1       2Au3g0        2Au3g+1       2Au3g+2       2Au3g+3       2Au3g+4       2Au4g-4       2Au4g-3       2Au4g-2       2Au4g-1   
   43    2Au4g0        2Au4g+1       2Au4g+2       2Au4g+3       2Au4g+4       2Au1h-5       2Au1h-4       2Au1h-3       2Au1h-2       2Au1h-1   
   44    2Au1h0        2Au1h+1       2Au1h+2       2Au1h+3       2Au1h+4       2Au1h+5       2Au2h-5       2Au2h-4       2Au2h-3       2Au2h-2   
   45    2Au2h-1       2Au2h0        2Au2h+1       2Au2h+2       2Au2h+3       2Au2h+4       2Au2h+5       2Au3h-5       2Au3h-4       2Au3h-3   
   46    2Au3h-2       2Au3h-1       2Au3h0        2Au3h+1       2Au3h+2       2Au3h+3       2Au3h+4       2Au3h+5       2Au1i-6       2Au1i-5   
   47    2Au1i-4       2Au1i-3       2Au1i-2       2Au1i-1       2Au1i0        2Au1i+1       2Au1i+2       2Au1i+3       2Au1i+4       2Au1i+5   
   48    2Au1i+6       2Au2i-6       2Au2i-5       2Au2i-4       2Au2i-3       2Au2i-2       2Au2i-1       2Au2i0        2Au2i+1       2Au2i+2   
   49    2Au2i+3       2Au2i+4       2Au2i+5       2Au2i+6       3Au1s         3Au2s         3Au3s         3Au4s         3Au5s         3Au6s     
   50    3Au7s         3Au8s         3Au9s         3Au10s        3Au11s        3Au12s        3Au13s        3Au1pz        3Au1py        3Au1px    
   51    3Au2pz        3Au2py        3Au2px        3Au3pz        3Au3py        3Au3px        3Au4pz        3Au4py        3Au4px        3Au5pz    
   52    3Au5py        3Au5px        3Au6pz        3Au6py        3Au6px        3Au7pz        3Au7py        3Au7px        3Au8pz        3Au8py    
   53    3Au8px        3Au9pz        3Au9py        3Au9px        3Au10pz       3Au10py       3Au10px       3Au11pz       3Au11py       3Au11px   
   54    3Au1d-2       3Au1d-1       3Au1d0        3Au1d+1       3Au1d+2       3Au2d-2       3Au2d-1       3Au2d0        3Au2d+1       3Au2d+2   
   55    3Au3d-2       3Au3d-1       3Au3d0        3Au3d+1       3Au3d+2       3Au4d-2       3Au4d-1       3Au4d0        3Au4d+1       3Au4d+2   
   56    3Au5d-2       3Au5d-1       3Au5d0        3Au5d+1       3Au5d+2       3Au6d-2       3Au6d-1       3Au6d0        3Au6d+1       3Au6d+2   
   57    3Au7d-2       3Au7d-1       3Au7d0        3Au7d+1       3Au7d+2       3Au8d-2       3Au8d-1       3Au8d0        3Au8d+1       3Au8d+2   
   58    3Au9d-2       3Au9d-1       3Au9d0        3Au9d+1       3Au9d+2       3Au10d-2      3Au10d-1      3Au10d0       3Au10d+1      3Au10d+2  
   59    3Au1f-3       3Au1f-2       3Au1f-1       3Au1f0        3Au1f+1       3Au1f+2       3Au1f+3       3Au2f-3       3Au2f-2       3Au2f-1   
   60    3Au2f0        3Au2f+1       3Au2f+2       3Au2f+3       3Au3f-3       3Au3f-2       3Au3f-1       3Au3f0        3Au3f+1       3Au3f+2   
   61    3Au3f+3       3Au4f-3       3Au4f-2       3Au4f-1       3Au4f0        3Au4f+1       3Au4f+2       3Au4f+3       3Au5f-3       3Au5f-2   
   62    3Au5f-1       3Au5f0        3Au5f+1       3Au5f+2       3Au5f+3       3Au6f-3       3Au6f-2       3Au6f-1       3Au6f0        3Au6f+1   
   63    3Au6f+2       3Au6f+3       3Au7f-3       3Au7f-2       3Au7f-1       3Au7f0        3Au7f+1       3Au7f+2       3Au7f+3       3Au8f-3   
   64    3Au8f-2       3Au8f-1       3Au8f0        3Au8f+1       3Au8f+2       3Au8f+3       3Au1g-4       3Au1g-3       3Au1g-2       3Au1g-1   
   65    3Au1g0        3Au1g+1       3Au1g+2       3Au1g+3       3Au1g+4       3Au2g-4       3Au2g-3       3Au2g-2       3Au2g-1       3Au2g0    
   66    3Au2g+1       3Au2g+2       3Au2g+3       3Au2g+4       3Au3g-4       3Au3g-3       3Au3g-2       3Au3g-1       3Au3g0        3Au3g+1   
   67    3Au3g+2       3Au3g+3       3Au3g+4       3Au4g-4       3Au4g-3       3Au4g-2       3Au4g-1       3Au4g0        3Au4g+1       3Au4g+2   
   68    3Au4g+3       3Au4g+4       3Au1h-5       3Au1h-4       3Au1h-3       3Au1h-2       3Au1h-1       3Au1h0        3Au1h+1       3Au1h+2   
   69    3Au1h+3       3Au1h+4       3Au1h+5       3Au2h-5       3Au2h-4       3Au2h-3       3Au2h-2       3Au2h-1       3Au2h0        3Au2h+1   
   70    3Au2h+2       3Au2h+3       3Au2h+4       3Au2h+5       3Au3h-5       3Au3h-4       3Au3h-3       3Au3h-2       3Au3h-1       3Au3h0    
   71    3Au3h+1       3Au3h+2       3Au3h+3       3Au3h+4       3Au3h+5       3Au1i-6       3Au1i-5       3Au1i-4       3Au1i-3       3Au1i-2   
   72    3Au1i-1       3Au1i0        3Au1i+1       3Au1i+2       3Au1i+3       3Au1i+4       3Au1i+5       3Au1i+6       3Au2i-6       3Au2i-5   
   73    3Au2i-4       3Au2i-3       3Au2i-2       3Au2i-1       3Au2i0        3Au2i+1       3Au2i+2       3Au2i+3       3Au2i+4       3Au2i+5   
   74    3Au2i+6       4Au1s         4Au2s         4Au3s         4Au4s         4Au5s         4Au6s         4Au7s         4Au8s         4Au9s     
   75    4Au10s        4Au11s        4Au12s        4Au13s        4Au1pz        4Au1py        4Au1px        4Au2pz        4Au2py        4Au2px    
   76    4Au3pz        4Au3py        4Au3px        4Au4pz        4Au4py        4Au4px        4Au5pz        4Au5py        4Au5px        4Au6pz    
   77    4Au6py        4Au6px        4Au7pz        4Au7py        4Au7px        4Au8pz        4Au8py        4Au8px        4Au9pz        4Au9py    
   78    4Au9px        4Au10pz       4Au10py       4Au10px       4Au11pz       4Au11py       4Au11px       4Au1d-2       4Au1d-1       4Au1d0    
   79    4Au1d+1       4Au1d+2       4Au2d-2       4Au2d-1       4Au2d0        4Au2d+1       4Au2d+2       4Au3d-2       4Au3d-1       4Au3d0    
   80    4Au3d+1       4Au3d+2       4Au4d-2       4Au4d-1       4Au4d0        4Au4d+1       4Au4d+2       4Au5d-2       4Au5d-1       4Au5d0    
   81    4Au5d+1       4Au5d+2       4Au6d-2       4Au6d-1       4Au6d0        4Au6d+1       4Au6d+2       4Au7d-2       4Au7d-1       4Au7d0    
   82    4Au7d+1       4Au7d+2       4Au8d-2       4Au8d-1       4Au8d0        4Au8d+1       4Au8d+2       4Au9d-2       4Au9d-1       4Au9d0    
   83    4Au9d+1       4Au9d+2       4Au10d-2      4Au10d-1      4Au10d0       4Au10d+1      4Au10d+2      4Au1f-3       4Au1f-2       4Au1f-1   
   84    4Au1f0        4Au1f+1       4Au1f+2       4Au1f+3       4Au2f-3       4Au2f-2       4Au2f-1       4Au2f0        4Au2f+1       4Au2f+2   
   85    4Au2f+3       4Au3f-3       4Au3f-2       4Au3f-1       4Au3f0        4Au3f+1       4Au3f+2       4Au3f+3       4Au4f-3       4Au4f-2   
   86    4Au4f-1       4Au4f0        4Au4f+1       4Au4f+2       4Au4f+3       4Au5f-3       4Au5f-2       4Au5f-1       4Au5f0        4Au5f+1   
   87    4Au5f+2       4Au5f+3       4Au6f-3       4Au6f-2       4Au6f-1       4Au6f0        4Au6f+1       4Au6f+2       4Au6f+3       4Au7f-3   
   88    4Au7f-2       4Au7f-1       4Au7f0        4Au7f+1       4Au7f+2       4Au7f+3       4Au8f-3       4Au8f-2       4Au8f-1       4Au8f0    
   89    4Au8f+1       4Au8f+2       4Au8f+3       4Au1g-4       4Au1g-3       4Au1g-2       4Au1g-1       4Au1g0        4Au1g+1       4Au1g+2   
   90    4Au1g+3       4Au1g+4       4Au2g-4       4Au2g-3       4Au2g-2       4Au2g-1       4Au2g0        4Au2g+1       4Au2g+2       4Au2g+3   
   91    4Au2g+4       4Au3g-4       4Au3g-3       4Au3g-2       4Au3g-1       4Au3g0        4Au3g+1       4Au3g+2       4Au3g+3       4Au3g+4   
   92    4Au4g-4       4Au4g-3       4Au4g-2       4Au4g-1       4Au4g0        4Au4g+1       4Au4g+2       4Au4g+3       4Au4g+4       4Au1h-5   
   93    4Au1h-4       4Au1h-3       4Au1h-2       4Au1h-1       4Au1h0        4Au1h+1       4Au1h+2       4Au1h+3       4Au1h+4       4Au1h+5   
   94    4Au2h-5       4Au2h-4       4Au2h-3       4Au2h-2       4Au2h-1       4Au2h0        4Au2h+1       4Au2h+2       4Au2h+3       4Au2h+4   
   95    4Au2h+5       4Au3h-5       4Au3h-4       4Au3h-3       4Au3h-2       4Au3h-1       4Au3h0        4Au3h+1       4Au3h+2       4Au3h+3   
   96    4Au3h+4       4Au3h+5       4Au1i-6       4Au1i-5       4Au1i-4       4Au1i-3       4Au1i-2       4Au1i-1       4Au1i0        4Au1i+1   
   97    4Au1i+2       4Au1i+3       4Au1i+4       4Au1i+5       4Au1i+6       4Au2i-6       4Au2i-5       4Au2i-4       4Au2i-3       4Au2i-2   
   98    4Au2i-1       4Au2i0        4Au2i+1       4Au2i+2       4Au2i+3       4Au2i+4       4Au2i+5       4Au2i+6       5Au1s         5Au2s     
   99    5Au3s         5Au4s         5Au5s         5Au6s         5Au7s         5Au8s         5Au9s         5Au10s        5Au11s        5Au12s    
  100    5Au13s        5Au1pz        5Au1py        5Au1px        5Au2pz        5Au2py        5Au2px        5Au3pz        5Au3py        5Au3px    
  101    5Au4pz        5Au4py        5Au4px        5Au5pz        5Au5py        5Au5px        5Au6pz        5Au6py        5Au6px        5Au7pz    
  102    5Au7py        5Au7px        5Au8pz        5Au8py        5Au8px        5Au9pz        5Au9py        5Au9px        5Au10pz       5Au10py   
  103    5Au10px       5Au11pz       5Au11py       5Au11px       5Au1d-2       5Au1d-1       5Au1d0        5Au1d+1       5Au1d+2       5Au2d-2   
  104    5Au2d-1       5Au2d0        5Au2d+1       5Au2d+2       5Au3d-2       5Au3d-1       5Au3d0        5Au3d+1       5Au3d+2       5Au4d-2   
  105    5Au4d-1       5Au4d0        5Au4d+1       5Au4d+2       5Au5d-2       5Au5d-1       5Au5d0        5Au5d+1       5Au5d+2       5Au6d-2   
  106    5Au6d-1       5Au6d0        5Au6d+1       5Au6d+2       5Au7d-2       5Au7d-1       5Au7d0        5Au7d+1       5Au7d+2       5Au8d-2   
  107    5Au8d-1       5Au8d0        5Au8d+1       5Au8d+2       5Au9d-2       5Au9d-1       5Au9d0        5Au9d+1       5Au9d+2       5Au10d-2  
  108    5Au10d-1      5Au10d0       5Au10d+1      5Au10d+2      5Au1f-3       5Au1f-2       5Au1f-1       5Au1f0        5Au1f+1       5Au1f+2   
  109    5Au1f+3       5Au2f-3       5Au2f-2       5Au2f-1       5Au2f0        5Au2f+1       5Au2f+2       5Au2f+3       5Au3f-3       5Au3f-2   
  110    5Au3f-1       5Au3f0        5Au3f+1       5Au3f+2       5Au3f+3       5Au4f-3       5Au4f-2       5Au4f-1       5Au4f0        5Au4f+1   
  111    5Au4f+2       5Au4f+3       5Au5f-3       5Au5f-2       5Au5f-1       5Au5f0        5Au5f+1       5Au5f+2       5Au5f+3       5Au6f-3   
  112    5Au6f-2       5Au6f-1       5Au6f0        5Au6f+1       5Au6f+2       5Au6f+3       5Au7f-3       5Au7f-2       5Au7f-1       5Au7f0    
  113    5Au7f+1       5Au7f+2       5Au7f+3       5Au8f-3       5Au8f-2       5Au8f-1       5Au8f0        5Au8f+1       5Au8f+2       5Au8f+3   
  114    5Au1g-4       5Au1g-3       5Au1g-2       5Au1g-1       5Au1g0        5Au1g+1       5Au1g+2       5Au1g+3       5Au1g+4       5Au2g-4   
  115    5Au2g-3       5Au2g-2       5Au2g-1       5Au2g0        5Au2g+1       5Au2g+2       5Au2g+3       5Au2g+4       5Au3g-4       5Au3g-3   
  116    5Au3g-2       5Au3g-1       5Au3g0        5Au3g+1       5Au3g+2       5Au3g+3       5Au3g+4       5Au4g-4       5Au4g-3       5Au4g-2   
  117    5Au4g-1       5Au4g0        5Au4g+1       5Au4g+2       5Au4g+3       5Au4g+4       5Au1h-5       5Au1h-4       5Au1h-3       5Au1h-2   
  118    5Au1h-1       5Au1h0        5Au1h+1       5Au1h+2       5Au1h+3       5Au1h+4       5Au1h+5       5Au2h-5       5Au2h-4       5Au2h-3   
  119    5Au2h-2       5Au2h-1       5Au2h0        5Au2h+1       5Au2h+2       5Au2h+3       5Au2h+4       5Au2h+5       5Au3h-5       5Au3h-4   
  120    5Au3h-3       5Au3h-2       5Au3h-1       5Au3h0        5Au3h+1       5Au3h+2       5Au3h+3       5Au3h+4       5Au3h+5       5Au1i-6   
  121    5Au1i-5       5Au1i-4       5Au1i-3       5Au1i-2       5Au1i-1       5Au1i0        5Au1i+1       5Au1i+2       5Au1i+3       5Au1i+4   
  122    5Au1i+5       5Au1i+6       5Au2i-6       5Au2i-5       5Au2i-4       5Au2i-3       5Au2i-2       5Au2i-1       5Au2i0        5Au2i+1   
  123    5Au2i+2       5Au2i+3       5Au2i+4       5Au2i+5       5Au2i+6       6Au1s         6Au2s         6Au3s         6Au4s         6Au5s     
  124    6Au6s         6Au7s         6Au8s         6Au9s         6Au10s        6Au11s        6Au12s        6Au13s        6Au1pz        6Au1py    
  125    6Au1px        6Au2pz        6Au2py        6Au2px        6Au3pz        6Au3py        6Au3px        6Au4pz        6Au4py        6Au4px    
  126    6Au5pz        6Au5py        6Au5px        6Au6pz        6Au6py        6Au6px        6Au7pz        6Au7py        6Au7px        6Au8pz    
  127    6Au8py        6Au8px        6Au9pz        6Au9py        6Au9px        6Au10pz       6Au10py       6Au10px       6Au11pz       6Au11py   
  128    6Au11px       6Au1d-2       6Au1d-1       6Au1d0        6Au1d+1       6Au1d+2       6Au2d-2       6Au2d-1       6Au2d0        6Au2d+1   
  129    6Au2d+2       6Au3d-2       6Au3d-1       6Au3d0        6Au3d+1       6Au3d+2       6Au4d-2       6Au4d-1       6Au4d0        6Au4d+1   
  130    6Au4d+2       6Au5d-2       6Au5d-1       6Au5d0        6Au5d+1       6Au5d+2       6Au6d-2       6Au6d-1       6Au6d0        6Au6d+1   
  131    6Au6d+2       6Au7d-2       6Au7d-1       6Au7d0        6Au7d+1       6Au7d+2       6Au8d-2       6Au8d-1       6Au8d0        6Au8d+1   
  132    6Au8d+2       6Au9d-2       6Au9d-1       6Au9d0        6Au9d+1       6Au9d+2       6Au10d-2      6Au10d-1      6Au10d0       6Au10d+1  
  133    6Au10d+2      6Au1f-3       6Au1f-2       6Au1f-1       6Au1f0        6Au1f+1       6Au1f+2       6Au1f+3       6Au2f-3       6Au2f-2   
  134    6Au2f-1       6Au2f0        6Au2f+1       6Au2f+2       6Au2f+3       6Au3f-3       6Au3f-2       6Au3f-1       6Au3f0        6Au3f+1   
  135    6Au3f+2       6Au3f+3       6Au4f-3       6Au4f-2       6Au4f-1       6Au4f0        6Au4f+1       6Au4f+2       6Au4f+3       6Au5f-3   
  136    6Au5f-2       6Au5f-1       6Au5f0        6Au5f+1       6Au5f+2       6Au5f+3       6Au6f-3       6Au6f-2       6Au6f-1       6Au6f0    
  137    6Au6f+1       6Au6f+2       6Au6f+3       6Au7f-3       6Au7f-2       6Au7f-1       6Au7f0        6Au7f+1       6Au7f+2       6Au7f+3   
  138    6Au8f-3       6Au8f-2       6Au8f-1       6Au8f0        6Au8f+1       6Au8f+2       6Au8f+3       6Au1g-4       6Au1g-3       6Au1g-2   
  139    6Au1g-1       6Au1g0        6Au1g+1       6Au1g+2       6Au1g+3       6Au1g+4       6Au2g-4       6Au2g-3       6Au2g-2       6Au2g-1   
  140    6Au2g0        6Au2g+1       6Au2g+2       6Au2g+3       6Au2g+4       6Au3g-4       6Au3g-3       6Au3g-2       6Au3g-1       6Au3g0    
  141    6Au3g+1       6Au3g+2       6Au3g+3       6Au3g+4       6Au4g-4       6Au4g-3       6Au4g-2       6Au4g-1       6Au4g0        6Au4g+1   
  142    6Au4g+2       6Au4g+3       6Au4g+4       6Au1h-5       6Au1h-4       6Au1h-3       6Au1h-2       6Au1h-1       6Au1h0        6Au1h+1   
  143    6Au1h+2       6Au1h+3       6Au1h+4       6Au1h+5       6Au2h-5       6Au2h-4       6Au2h-3       6Au2h-2       6Au2h-1       6Au2h0    
  144    6Au2h+1       6Au2h+2       6Au2h+3       6Au2h+4       6Au2h+5       6Au3h-5       6Au3h-4       6Au3h-3       6Au3h-2       6Au3h-1   
  145    6Au3h0        6Au3h+1       6Au3h+2       6Au3h+3       6Au3h+4       6Au3h+5       6Au1i-6       6Au1i-5       6Au1i-4       6Au1i-3   
  146    6Au1i-2       6Au1i-1       6Au1i0        6Au1i+1       6Au1i+2       6Au1i+3       6Au1i+4       6Au1i+5       6Au1i+6       6Au2i-6   
  147    6Au2i-5       6Au2i-4       6Au2i-3       6Au2i-2       6Au2i-1       6Au2i0        6Au2i+1       6Au2i+2       6Au2i+3       6Au2i+4   
  148    6Au2i+5       6Au2i+6       7Au1s         7Au2s         7Au3s         7Au4s         7Au5s         7Au6s         7Au7s         7Au8s     
  149    7Au9s         7Au10s        7Au11s        7Au12s        7Au13s        7Au1pz        7Au1py        7Au1px        7Au2pz        7Au2py    
  150    7Au2px        7Au3pz        7Au3py        7Au3px        7Au4pz        7Au4py        7Au4px        7Au5pz        7Au5py        7Au5px    
  151    7Au6pz        7Au6py        7Au6px        7Au7pz        7Au7py        7Au7px        7Au8pz        7Au8py        7Au8px        7Au9pz    
  152    7Au9py        7Au9px        7Au10pz       7Au10py       7Au10px       7Au11pz       7Au11py       7Au11px       7Au1d-2       7Au1d-1   
  153    7Au1d0        7Au1d+1       7Au1d+2       7Au2d-2       7Au2d-1       7Au2d0        7Au2d+1       7Au2d+2       7Au3d-2       7Au3d-1   
  154    7Au3d0        7Au3d+1       7Au3d+2       7Au4d-2       7Au4d-1       7Au4d0        7Au4d+1       7Au4d+2       7Au5d-2       7Au5d-1   
  155    7Au5d0        7Au5d+1       7Au5d+2       7Au6d-2       7Au6d-1       7Au6d0        7Au6d+1       7Au6d+2       7Au7d-2       7Au7d-1   
  156    7Au7d0        7Au7d+1       7Au7d+2       7Au8d-2       7Au8d-1       7Au8d0        7Au8d+1       7Au8d+2       7Au9d-2       7Au9d-1   
  157    7Au9d0        7Au9d+1       7Au9d+2       7Au10d-2      7Au10d-1      7Au10d0       7Au10d+1      7Au10d+2      7Au1f-3       7Au1f-2   
  158    7Au1f-1       7Au1f0        7Au1f+1       7Au1f+2       7Au1f+3       7Au2f-3       7Au2f-2       7Au2f-1       7Au2f0        7Au2f+1   
  159    7Au2f+2       7Au2f+3       7Au3f-3       7Au3f-2       7Au3f-1       7Au3f0        7Au3f+1       7Au3f+2       7Au3f+3       7Au4f-3   
  160    7Au4f-2       7Au4f-1       7Au4f0        7Au4f+1       7Au4f+2       7Au4f+3       7Au5f-3       7Au5f-2       7Au5f-1       7Au5f0    
  161    7Au5f+1       7Au5f+2       7Au5f+3       7Au6f-3       7Au6f-2       7Au6f-1       7Au6f0        7Au6f+1       7Au6f+2       7Au6f+3   
  162    7Au7f-3       7Au7f-2       7Au7f-1       7Au7f0        7Au7f+1       7Au7f+2       7Au7f+3       7Au8f-3       7Au8f-2       7Au8f-1   
  163    7Au8f0        7Au8f+1       7Au8f+2       7Au8f+3       7Au1g-4       7Au1g-3       7Au1g-2       7Au1g-1       7Au1g0        7Au1g+1   
  164    7Au1g+2       7Au1g+3       7Au1g+4       7Au2g-4       7Au2g-3       7Au2g-2       7Au2g-1       7Au2g0        7Au2g+1       7Au2g+2   
  165    7Au2g+3       7Au2g+4       7Au3g-4       7Au3g-3       7Au3g-2       7Au3g-1       7Au3g0        7Au3g+1       7Au3g+2       7Au3g+3   
  166    7Au3g+4       7Au4g-4       7Au4g-3       7Au4g-2       7Au4g-1       7Au4g0        7Au4g+1       7Au4g+2       7Au4g+3       7Au4g+4   
  167    7Au1h-5       7Au1h-4       7Au1h-3       7Au1h-2       7Au1h-1       7Au1h0        7Au1h+1       7Au1h+2       7Au1h+3       7Au1h+4   
  168    7Au1h+5       7Au2h-5       7Au2h-4       7Au2h-3       7Au2h-2       7Au2h-1       7Au2h0        7Au2h+1       7Au2h+2       7Au2h+3   
  169    7Au2h+4       7Au2h+5       7Au3h-5       7Au3h-4       7Au3h-3       7Au3h-2       7Au3h-1       7Au3h0        7Au3h+1       7Au3h+2   
  170    7Au3h+3       7Au3h+4       7Au3h+5       7Au1i-6       7Au1i-5       7Au1i-4       7Au1i-3       7Au1i-2       7Au1i-1       7Au1i0    
  171    7Au1i+1       7Au1i+2       7Au1i+3       7Au1i+4       7Au1i+5       7Au1i+6       7Au2i-6       7Au2i-5       7Au2i-4       7Au2i-3   
  172    7Au2i-2       7Au2i-1       7Au2i0        7Au2i+1       7Au2i+2       7Au2i+3       7Au2i+4       7Au2i+5       7Au2i+6       8Au1s     
  173    8Au2s         8Au3s         8Au4s         8Au5s         8Au6s         8Au7s         8Au8s         8Au9s         8Au10s        8Au11s    
  174    8Au12s        8Au13s        8Au1pz        8Au1py        8Au1px        8Au2pz        8Au2py        8Au2px        8Au3pz        8Au3py    
  175    8Au3px        8Au4pz        8Au4py        8Au4px        8Au5pz        8Au5py        8Au5px        8Au6pz        8Au6py        8Au6px    
  176    8Au7pz        8Au7py        8Au7px        8Au8pz        8Au8py        8Au8px        8Au9pz        8Au9py        8Au9px        8Au10pz   
  177    8Au10py       8Au10px       8Au11pz       8Au11py       8Au11px       8Au1d-2       8Au1d-1       8Au1d0        8Au1d+1       8Au1d+2   
  178    8Au2d-2       8Au2d-1       8Au2d0        8Au2d+1       8Au2d+2       8Au3d-2       8Au3d-1       8Au3d0        8Au3d+1       8Au3d+2   
  179    8Au4d-2       8Au4d-1       8Au4d0        8Au4d+1       8Au4d+2       8Au5d-2       8Au5d-1       8Au5d0        8Au5d+1       8Au5d+2   
  180    8Au6d-2       8Au6d-1       8Au6d0        8Au6d+1       8Au6d+2       8Au7d-2       8Au7d-1       8Au7d0        8Au7d+1       8Au7d+2   
  181    8Au8d-2       8Au8d-1       8Au8d0        8Au8d+1       8Au8d+2       8Au9d-2       8Au9d-1       8Au9d0        8Au9d+1       8Au9d+2   
  182    8Au10d-2      8Au10d-1      8Au10d0       8Au10d+1      8Au10d+2      8Au1f-3       8Au1f-2       8Au1f-1       8Au1f0        8Au1f+1   
  183    8Au1f+2       8Au1f+3       8Au2f-3       8Au2f-2       8Au2f-1       8Au2f0        8Au2f+1       8Au2f+2       8Au2f+3       8Au3f-3   
  184    8Au3f-2       8Au3f-1       8Au3f0        8Au3f+1       8Au3f+2       8Au3f+3       8Au4f-3       8Au4f-2       8Au4f-1       8Au4f0    
  185    8Au4f+1       8Au4f+2       8Au4f+3       8Au5f-3       8Au5f-2       8Au5f-1       8Au5f0        8Au5f+1       8Au5f+2       8Au5f+3   
  186    8Au6f-3       8Au6f-2       8Au6f-1       8Au6f0        8Au6f+1       8Au6f+2       8Au6f+3       8Au7f-3       8Au7f-2       8Au7f-1   
  187    8Au7f0        8Au7f+1       8Au7f+2       8Au7f+3       8Au8f-3       8Au8f-2       8Au8f-1       8Au8f0        8Au8f+1       8Au8f+2   
  188    8Au8f+3       8Au1g-4       8Au1g-3       8Au1g-2       8Au1g-1       8Au1g0        8Au1g+1       8Au1g+2       8Au1g+3       8Au1g+4   
  189    8Au2g-4       8Au2g-3       8Au2g-2       8Au2g-1       8Au2g0        8Au2g+1       8Au2g+2       8Au2g+3       8Au2g+4       8Au3g-4   
  190    8Au3g-3       8Au3g-2       8Au3g-1       8Au3g0        8Au3g+1       8Au3g+2       8Au3g+3       8Au3g+4       8Au4g-4       8Au4g-3   
  191    8Au4g-2       8Au4g-1       8Au4g0        8Au4g+1       8Au4g+2       8Au4g+3       8Au4g+4       8Au1h-5       8Au1h-4       8Au1h-3   
  192    8Au1h-2       8Au1h-1       8Au1h0        8Au1h+1       8Au1h+2       8Au1h+3       8Au1h+4       8Au1h+5       8Au2h-5       8Au2h-4   
  193    8Au2h-3       8Au2h-2       8Au2h-1       8Au2h0        8Au2h+1       8Au2h+2       8Au2h+3       8Au2h+4       8Au2h+5       8Au3h-5   
  194    8Au3h-4       8Au3h-3       8Au3h-2       8Au3h-1       8Au3h0        8Au3h+1       8Au3h+2       8Au3h+3       8Au3h+4       8Au3h+5   
  195    8Au1i-6       8Au1i-5       8Au1i-4       8Au1i-3       8Au1i-2       8Au1i-1       8Au1i0        8Au1i+1       8Au1i+2       8Au1i+3   
  196    8Au1i+4       8Au1i+5       8Au1i+6       8Au2i-6       8Au2i-5       8Au2i-4       8Au2i-3       8Au2i-2       8Au2i-1       8Au2i0    
  197    8Au2i+1       8Au2i+2       8Au2i+3       8Au2i+4       8Au2i+5       8Au2i+6   
 
 Maximum number of basis functions per shell:   56
 Total number of basis functions:   1976
 
 
 Effective core potentials:
 
   1  Au mcdhf-ecp-60        
   2  Au mcdhf-ecp-60        
   3  Au mcdhf-ecp-60        
   4  Au mcdhf-ecp-60        
   5  Au mcdhf-ecp-60        
   6  Au mcdhf-ecp-60        
   7  Au mcdhf-ecp-60        
   8  Au mcdhf-ecp-60        
 
 Initializing the SAD routines for the initial guess...
 Checking the files required for the initial guess...
 Density files have not been found for the initial guess.
 Generating SCFDENSITIES.Au.def2-svp.0
 CPU time [min]:     0.120                   Wall time [min]:     0.189
 
 Character table for point group C1:
 
          E  
    A     1
 
 Number of basis functions per irrep:
    A     256
 
 
 Calculation of overlap integrals...
 CPU time [min]:     0.122                   Wall time [min]:     0.189
 
 Calculation of the square root of the overlap matrix...
 Minimum eigenvalue of the overlap matrix: 0.807227E-03
 CPU time [min]:     0.152                   Wall time [min]:     0.190
 
 Calculation of kinetic energy integrals...
 CPU time [min]:     0.153                   Wall time [min]:     0.191
 Calculation of dipole moment integrals...
 CPU time [min]:     0.155                   Wall time [min]:     0.191
 Calculation of nuclear attraction integrals...
 CPU time [min]:     0.159                   Wall time [min]:     0.191
 Calculation of core potential integrals...
 CPU time [min]:     1.210                   Wall time [min]:     1.131
 
 Calculation of prescreening integrals...
 CPU time [min]:     1.786                   Wall time [min]:     1.147
 
 Calculation of two-center Coulomb integrals...
   1% done.
  12% done.
  24% done.
  35% done.
  49% done.
  60% done.
  71% done.
  85% done.
  97% done.
 100% done.
 CPU time [min]:     1.813                   Wall time [min]:     1.148
 
 Cholesky decomposition of the two-center matrix...
 Reciprocal of the condition number:  0.451071E-06
 Warning! Ill-conditioned two-center integral matrix.
 This may result in convergence problems.
 CPU time [min]:     1.936                   Wall time [min]:     1.151
 
 
 Running small-basis SCF...

 ************************ 2023-02-04 10:28:00 *************************
 Executing scf...

 @scfsetup: integrals calculated directly
            mrcc/integ direct run
 @scfsetup: calculating on full matrices
            not using symmetry adapted basis
 @scfsetup: diis switched on
 @scfsetup: number of steps to extrapolate from  10
 @scfsetup: tolerance in energy deviation    0.100000E-05
            tolerance in density deviation    0.100000E-06
 @scfsetup: maximum number of iterations:  50
 @scfsetup: restricted closed shell hf calc
 @scfsetup: starting scf from superposition of atomic densities
 @scfsetup: occupation set:
            from initial orbitals
 @scfsetup: Parameter-set for SCF acceleration: difficult
 @scfsetup: diis runs from iteration:   2
 @scfsetup: diis runs to iteration:  50
 @scfsetup: diis runs in every iteration
 @scfsetup: diiswatch is disabled                   
 @scfsetup: diis dtol criteria to switch on:      0.0000E+00
           (or the iteration number below is reached)
 @scfsetup: damping is turned off.
 @scfsetup: dynamic level shifting
            tolarance in HOMO-LUMO gap:  0.200
            tolarance in density deviation:     0.0000E+00
            iteration step criteria to turn level shifting off: 8
 Allocation of 220.0 Gbytes of memory...
 ======================================================================
 ITERATION STEP   1
 CPU time [min]:     0.039                   Wall time [min]:     0.006
 

 SCF control                  : initial
 Damping factor/level shift   : 0.000/0.200
 DIIS [start/end/frequency]   :   2 / 50 /  1

 Constructing Fock-matrix...
 
 Pipek-Mezey localization...
 Step  Convergence
   1  79.744994845138
   2  20.072656502539
   3   2.649643378349
   4   0.122297293570
   5   0.000223910940
   6   0.000000043752
 CPU time [min]:     0.077                   Wall time [min]:     0.007
 
 Constructing local fitting domains...
 Maximum number of atoms in fitting domains:    8
 Average number of atoms in fitting domains:    8.0
 
 First step of Coulomb + first step of exchange...
 Exchange contribution is evaluated for MOs 1 to 76.
   1% done.
  12% done.
  25% done.
  36% done.
  47% done.
  60% done.
  72% done.
  87% done.
 100% done.
 CPU time [min]:     0.754                   Wall time [min]:     0.026
 
 Fitting and assembly step of exchange...
 CPU time [min]:     0.859                   Wall time [min]:     0.029
 
 Second step of Coulomb...
   1% done.
  12% done.
  25% done.
  36% done.
  47% done.
  60% done.
  72% done.
  87% done.
 100% done.
 CPU time [min]:     0.988                   Wall time [min]:     0.033
 
 Gradient norm:      3.5117E+00
 RMS of [F,P]:                                         0.03365996432653
 RMS of difference density:                            0.02165401568783
 Gap [au]:  0.16428345
 ALPHA OCC:  76
 BETA  OCC:  76
 
 ***HARTREE-FOCK ENERGY IN STEP   1 IS      -1075.4662710491820690 [AU]
 ======================================================================
 ITERATION STEP   2
 CPU time [min]:     1.009                   Wall time [min]:     0.033
 

 SCF control                  : diis
 Damping factor/level shift   : 0.000/0.200
 DIIS [start/end/frequency]   :   2 / 50 /  1

 Constructing Fock-matrix...
 
 Pipek-Mezey localization...
 Step  Convergence
   1  11.309237344446
   2   8.062781200597
   3   0.279345774959
   4   0.026422070436
   5   0.038786898316
   6   0.000513566193
   7   0.000008466024
   8   0.000000122289
 CPU time [min]:     1.060                   Wall time [min]:     0.035
 
 Constructing local fitting domains...
 Maximum number of atoms in fitting domains:    8
 Average number of atoms in fitting domains:    8.0
 
 First step of Coulomb + first step of exchange...
 Exchange contribution is evaluated for MOs 1 to 76.
   1% done.
  12% done.
  25% done.
  36% done.
  47% done.
  60% done.
  72% done.
  87% done.
 100% done.
 CPU time [min]:     1.711                   Wall time [min]:     0.053
 
 Fitting and assembly step of exchange...
 CPU time [min]:     1.802                   Wall time [min]:     0.056
 
 Second step of Coulomb...
   1% done.
  12% done.
  25% done.
  36% done.
  47% done.
  60% done.
  72% done.
  87% done.
 100% done.
 CPU time [min]:     1.928                   Wall time [min]:     0.059
 
 Gradient norm:      3.8917E-01
 DIIS is running in this iteration step.
 RMS of [F,P]:                                         0.00966379088526
 RMS of difference density:                            0.01242606676124
 Gap [au]:  0.23191040
 ALPHA OCC:  76
 BETA  OCC:  76
 
 ***HARTREE-FOCK ENERGY IN STEP   2 IS      -1077.7930787969216908 [AU]
 
 Step comparison  Energy Drift [au]  DIIS error drift  Gradient drift
        1            2.3268E+00         2.3996E-02       3.1225E+00
        2            1.0778E+03         1.0000E-07       3.1225E+00
 ======================================================================
 ITERATION STEP   3
 CPU time [min]:     1.947                   Wall time [min]:     0.060
 

 SCF control                  : diis
 Damping factor/level shift   : 0.000/0.000
 DIIS [start/end/frequency]   :   2 / 50 /  1

 Constructing Fock-matrix...
 
 Pipek-Mezey localization...
 Step  Convergence
   1  17.415931259091
   2   5.958071341427
   3   0.541972926167
   4   0.002923065336
   5   0.000010239026
   6   0.000000013351
 CPU time [min]:     1.985                   Wall time [min]:     0.061
 
 Constructing local fitting domains...
 Local fitting domains are unchanged.
 
 First step of Coulomb + first step of exchange...
 Exchange contribution is evaluated for MOs 1 to 76.
   1% done.
  12% done.
  25% done.
  36% done.
  47% done.
  60% done.
  72% done.
  87% done.
 100% done.
 CPU time [min]:     2.617                   Wall time [min]:     0.078
 
 Fitting and assembly step of exchange...
 CPU time [min]:     2.709                   Wall time [min]:     0.081
 
 Second step of Coulomb...
   1% done.
  12% done.
  25% done.
  36% done.
  47% done.
  60% done.
  72% done.
  87% done.
 100% done.
 CPU time [min]:     2.834                   Wall time [min]:     0.084
 
 Gradient norm:      1.3280E-01
 DIIS is running in this iteration step.
 RMS of [F,P]:                                         0.00443607852437
 RMS of difference density:                            0.00361091079466
 Gap [au]:  0.21157418
 ALPHA OCC:  76
 BETA  OCC:  76
 
 ***HARTREE-FOCK ENERGY IN STEP   3 IS      -1078.1974181362320451 [AU]
 
 Step comparison  Energy Drift [au]  DIIS error drift  Gradient drift
        2            4.0434E-01         5.2277E-03       2.5638E-01
 ======================================================================
 ITERATION STEP   4
 CPU time [min]:     2.853                   Wall time [min]:     0.085
 

 SCF control                  : diis
 Damping factor/level shift   : 0.000/0.000
 DIIS [start/end/frequency]   :   2 / 50 /  1

 Constructing Fock-matrix...
 
 Pipek-Mezey localization...
 Step  Convergence
   1  21.005350661900
   2   9.862577135536
   3   0.640173256325
   4   0.099497024264
   5   0.001830713893
   6   0.000004187692
   7   0.000000014773
 CPU time [min]:     2.893                   Wall time [min]:     0.086
 
 Constructing local fitting domains...
 Local fitting domains are unchanged.
 
 First step of Coulomb + first step of exchange...
 Exchange contribution is evaluated for MOs 1 to 76.
   1% done.
  12% done.
  25% done.
  36% done.
  47% done.
  60% done.
  72% done.
  87% done.
 100% done.
 CPU time [min]:     3.526                   Wall time [min]:     0.104
 
 Fitting and assembly step of exchange...
 CPU time [min]:     3.618                   Wall time [min]:     0.106
 
 Second step of Coulomb...
   1% done.
  12% done.
  25% done.
  36% done.
  47% done.
  60% done.
  72% done.
  87% done.
 100% done.
 CPU time [min]:     3.743                   Wall time [min]:     0.110
 
 Gradient norm:      6.0015E-02
 DIIS is running in this iteration step.
 RMS of [F,P]:                                         0.00147626082862
 RMS of difference density:                            0.00145284346423
 Gap [au]:  0.21885153
 ALPHA OCC:  76
 BETA  OCC:  76
 
 ***HARTREE-FOCK ENERGY IN STEP   4 IS      -1078.2963075476873200 [AU]
 
 Step comparison  Energy Drift [au]  DIIS error drift  Gradient drift
        3            9.8889E-02         2.9598E-03       7.2784E-02
 ======================================================================
 ITERATION STEP   5
 CPU time [min]:     3.778                   Wall time [min]:     0.111
 

 SCF control                  : diis
 Damping factor/level shift   : 0.000/0.000
 DIIS [start/end/frequency]   :   2 / 50 /  1

 Constructing Fock-matrix...
 
 Pipek-Mezey localization...
 Step  Convergence
   1  24.160089101784
   2   6.396329805320
   3   0.740965091912
   4   0.235246635260
   5   0.057440069855
   6   0.001547456868
   7   0.000075154538
   8   0.000003947772
   9   0.000000190064
 CPU time [min]:     3.823                   Wall time [min]:     0.112
 
 Constructing local fitting domains...
 Local fitting domains are unchanged.
 
 First step of Coulomb + first step of exchange...
 Exchange contribution is evaluated for MOs 1 to 76.
   1% done.
  12% done.
  25% done.
  36% done.
  47% done.
  60% done.
  72% done.
  87% done.
 100% done.
 CPU time [min]:     4.456                   Wall time [min]:     0.130
 
 Fitting and assembly step of exchange...
 CPU time [min]:     4.547                   Wall time [min]:     0.132
 
 Second step of Coulomb...
   1% done.
  12% done.
  25% done.
  36% done.
  47% done.
  60% done.
  72% done.
  87% done.
 100% done.
 CPU time [min]:     4.673                   Wall time [min]:     0.136
 
 Gradient norm:      1.4167E-02
 DIIS is running in this iteration step.
 RMS of [F,P]:                                         0.00037694223310
 RMS of difference density:                            0.00081733731828
 Gap [au]:  0.21870964
 ALPHA OCC:  76
 BETA  OCC:  76
 
 ***HARTREE-FOCK ENERGY IN STEP   5 IS      -1078.3085868436346573 [AU]
 
 Step comparison  Energy Drift [au]  DIIS error drift  Gradient drift
        4            1.2279E-02         1.0993E-03       4.5848E-02
 ======================================================================
 ITERATION STEP   6
 CPU time [min]:     4.691                   Wall time [min]:     0.136
 

 SCF control                  : diis
 Damping factor/level shift   : 0.000/0.000
 DIIS [start/end/frequency]   :   2 / 50 /  1

 Constructing Fock-matrix...
 
 Pipek-Mezey localization...
 Step  Convergence
   1  14.276415436432
   2   7.307133900820
   3   0.458075430666
   4   0.006597943685
   5   0.000234358987
   6   0.000007680542
   7   0.000000429818
 CPU time [min]:     4.731                   Wall time [min]:     0.138
 
 Constructing local fitting domains...
 Local fitting domains are unchanged.
 
 First step of Coulomb + first step of exchange...
 Exchange contribution is evaluated for MOs 1 to 76.
   1% done.
  12% done.
  25% done.
  36% done.
  47% done.
  60% done.
  72% done.
  87% done.
 100% done.
 CPU time [min]:     5.363                   Wall time [min]:     0.155
 
 Fitting and assembly step of exchange...
 CPU time [min]:     5.455                   Wall time [min]:     0.158
 
 Second step of Coulomb...
   1% done.
  12% done.
  25% done.
  36% done.
  47% done.
  60% done.
  72% done.
  87% done.
 100% done.
 CPU time [min]:     5.580                   Wall time [min]:     0.161
 
 Gradient norm:      6.2728E-03
 DIIS is running in this iteration step.
 RMS of [F,P]:                                         0.00009164340030
 RMS of difference density:                            0.00024551476452
 Gap [au]:  0.21988895
 ALPHA OCC:  76
 BETA  OCC:  76
 
 ***HARTREE-FOCK ENERGY IN STEP   6 IS      -1078.3103046085543610 [AU]
 
 Step comparison  Energy Drift [au]  DIIS error drift  Gradient drift
        5            1.7178E-03         2.8530E-04       7.8945E-03
 ======================================================================
 ITERATION STEP   7
 CPU time [min]:     5.599                   Wall time [min]:     0.162
 

 SCF control                  : diis
 Damping factor/level shift   : 0.000/0.000
 DIIS [start/end/frequency]   :   2 / 50 /  1

 Constructing Fock-matrix...
 
 Pipek-Mezey localization...
 Step  Convergence
   1  25.451508661862
   2  14.191596024560
   3  23.220775560766
   4   6.016917271723
   5   0.652762115102
   6   0.046109392389
   7   0.014078320034
   8   0.005278894440
   9   0.001933182620
  10   0.000708882186
  11   0.000260191485
  12   0.000093954569
  13   0.000034533948
  14   0.000012708633
  15   0.000004656335
  16   0.000001688269
  17   0.000000625738
  18   0.000000231816
  19   0.000000084504
  20   0.000000031187
  21   0.000000011749
  22   0.000000004340
  23   0.000000001630
  24   0.000000000611
  25   0.000000000228
  26   0.000000000085
  27   0.000000000032
  28   0.000000000012
  29   0.000000000004
  30   0.000000000002
  31   0.000000000001
 CPU time [min]:     5.695                   Wall time [min]:     0.164
 
 Constructing local fitting domains...
 Local fitting domains are unchanged.
 
 First step of Coulomb + first step of exchange...
 Exchange contribution is evaluated for MOs 1 to 76.
   1% done.
  12% done.
  25% done.
  36% done.
  47% done.
  60% done.
  72% done.
  87% done.
 100% done.
 CPU time [min]:     6.328                   Wall time [min]:     0.182
 
 Fitting and assembly step of exchange...
 CPU time [min]:     6.420                   Wall time [min]:     0.185
 
 Second step of Coulomb...
   1% done.
  12% done.
  25% done.
  36% done.
  47% done.
  60% done.
  72% done.
  87% done.
 100% done.
 CPU time [min]:     6.545                   Wall time [min]:     0.188
 
 Gradient norm:      2.8413E-03
 DIIS is running in this iteration step.
 RMS of [F,P]:                                         0.00004175538525
 RMS of difference density:                            0.00013693245834
 Gap [au]:  0.22018437
 ALPHA OCC:  76
 BETA  OCC:  76
 
 ***HARTREE-FOCK ENERGY IN STEP   7 IS      -1078.3104923546243299 [AU]
 
 Step comparison  Energy Drift [au]  DIIS error drift  Gradient drift
        6            1.8775E-04         4.9888E-05       3.4315E-03
 ======================================================================
 ITERATION STEP   8
 CPU time [min]:     6.564                   Wall time [min]:     0.189
 

 SCF control                  : diis
 Damping factor/level shift   : 0.000/0.000
 DIIS [start/end/frequency]   :   2 / 50 /  1

 Constructing Fock-matrix...
 
 Pipek-Mezey localization...
 Step  Convergence
   1  20.882327696559
   2  12.111785128966
   3  17.404124576112
   4   4.126605056408
   5   0.340284981046
   6   0.019802770077
   7   0.001269906761
   8   0.000521710380
   9   0.000296082535
  10   0.000220598181
  11   0.000199137175
  12   0.000200289013
  13   0.000215491757
  14   0.000245151587
  15   0.000296304448
  16   0.000386341802
  17   0.000557043546
  18   0.000922011911
  19   0.001854363198
  20   0.004883845662
  21   0.016443932864
  22   0.035543244522
  23   0.020974884895
  24   0.005254070323
  25   0.000996711944
  26   0.000207432939
  27   0.000050099275
  28   0.000012897821
  29   0.000003301760
  30   0.000000812730
  31   0.000000189995
  32   0.000000041967
  33   0.000000008719
  34   0.000000001698
  35   0.000000000305
  36   0.000000000051
  37   0.000000000008
  38   0.000000000001
  39   0.000000000000
 CPU time [min]:     6.678                   Wall time [min]:     0.192
 
 Constructing local fitting domains...
 Local fitting domains are unchanged.
 
 First step of Coulomb + first step of exchange...
 Exchange contribution is evaluated for MOs 1 to 76.
   1% done.
  12% done.
  25% done.
  36% done.
  47% done.
  60% done.
  72% done.
  87% done.
 100% done.
 CPU time [min]:     7.311                   Wall time [min]:     0.210
 
 Fitting and assembly step of exchange...
 CPU time [min]:     7.402                   Wall time [min]:     0.212
 
 Second step of Coulomb...
   1% done.
  12% done.
  25% done.
  36% done.
  47% done.
  60% done.
  72% done.
  87% done.
 100% done.
 CPU time [min]:     7.527                   Wall time [min]:     0.216
 
 Gradient norm:      1.5392E-03
 DIIS is running in this iteration step.
 RMS of [F,P]:                                         0.00001805715773
 RMS of difference density:                            0.00005909695424
 Gap [au]:  0.22020607
 ALPHA OCC:  76
 BETA  OCC:  76
 
 ***HARTREE-FOCK ENERGY IN STEP   8 IS      -1078.3105482258733900 [AU]
 
 Step comparison  Energy Drift [au]  DIIS error drift  Gradient drift
        7            5.5871E-05         2.3698E-05       1.3021E-03
 ======================================================================
 ITERATION STEP   9
 CPU time [min]:     7.573                   Wall time [min]:     0.217
 

 SCF control                  : diis
 Damping factor/level shift   : 0.000/0.000
 DIIS [start/end/frequency]   :   2 / 50 /  1

 Constructing Fock-matrix...
 
 Pipek-Mezey localization...
 Step  Convergence
   1  21.514596694629
   2  12.149402383165
   3  15.841173458492
   4   5.280475222281
   5   0.716351921750
   6   0.232134510690
   7   0.057213968935
   8   0.018010985742
   9   0.002735611426
  10   0.000810685698
  11   0.000268306946
  12   0.000076956046
  13   0.000021193081
  14   0.000005831897
  15   0.000001594660
  16   0.000000426548
  17   0.000000111469
  18   0.000000028508
  19   0.000000007269
  20   0.000000001861
  21   0.000000000495
  22   0.000000000137
  23   0.000000000040
  24   0.000000000012
  25   0.000000000004
  26   0.000000000001
  27   0.000000000000
 CPU time [min]:     7.668                   Wall time [min]:     0.220
 
 Constructing local fitting domains...
 Local fitting domains are unchanged.
 
 First step of Coulomb + first step of exchange...
 Exchange contribution is evaluated for MOs 1 to 76.
   1% done.
  12% done.
  25% done.
  36% done.
  47% done.
  60% done.
  72% done.
  87% done.
 100% done.
 CPU time [min]:     8.300                   Wall time [min]:     0.237
 
 Fitting and assembly step of exchange...
 CPU time [min]:     8.396                   Wall time [min]:     0.240
 
 Second step of Coulomb...
   1% done.
  12% done.
  25% done.
  36% done.
  47% done.
  60% done.
  72% done.
  87% done.
 100% done.
 CPU time [min]:     8.522                   Wall time [min]:     0.243
 
 Gradient norm:      1.1064E-03
 DIIS is running in this iteration step.
 RMS of [F,P]:                                         0.00000991058458
 RMS of difference density:                            0.00004234136769
 Gap [au]:  0.22036534
 ALPHA OCC:  76
 BETA  OCC:  76
 
 ***HARTREE-FOCK ENERGY IN STEP   9 IS      -1078.3105593034988487 [AU]
 
 Step comparison  Energy Drift [au]  DIIS error drift  Gradient drift
        8            1.1078E-05         8.1466E-06       4.3282E-04
 ======================================================================
 ITERATION STEP  10
 CPU time [min]:     8.541                   Wall time [min]:     0.244
 

 SCF control                  : diis
 Damping factor/level shift   : 0.000/0.000
 DIIS [start/end/frequency]   :   2 / 50 /  1

 Constructing Fock-matrix...
 
 Pipek-Mezey localization...
 Step  Convergence
   1  21.828883295161
   2  12.232031645790
   3  18.627061140864
   4   4.440592202443
   5   1.140755259302
   6   0.071137860504
   7   0.007598911037
   8   0.002116319977
   9   0.000716864059
  10   0.000215445150
  11   0.000075812261
  12   0.000023333512
  13   0.000008592521
  14   0.000002669546
  15   0.000001014446
  16   0.000000351852
  17   0.000000115856
  18   0.000000034755
  19   0.000000013953
  20   0.000000004360
  21   0.000000001755
  22   0.000000000624
  23   0.000000000181
  24   0.000000000076
  25   0.000000000027
  26   0.000000000008
  27   0.000000000003
  28   0.000000000001
  29   0.000000000000
 CPU time [min]:     8.632                   Wall time [min]:     0.247
 
 Constructing local fitting domains...
 Local fitting domains are unchanged.
 
 First step of Coulomb + first step of exchange...
 Exchange contribution is evaluated for MOs 1 to 76.
   1% done.
  12% done.
  25% done.
  36% done.
  47% done.
  60% done.
  72% done.
  87% done.
 100% done.
 CPU time [min]:     9.264                   Wall time [min]:     0.264
 
 Fitting and assembly step of exchange...
 CPU time [min]:     9.356                   Wall time [min]:     0.267
 
 Second step of Coulomb...
   1% done.
  12% done.
  25% done.
  36% done.
  47% done.
  60% done.
  72% done.
  87% done.
 100% done.
 CPU time [min]:     9.482                   Wall time [min]:     0.270
 
 Gradient norm:      3.8736E-04
 DIIS is running in this iteration step.
 RMS of [F,P]:                                         0.00000473888816
 RMS of difference density:                            0.00002392360448
 Gap [au]:  0.22038142
 ALPHA OCC:  76
 BETA  OCC:  76
 
 ***HARTREE-FOCK ENERGY IN STEP  10 IS      -1078.3105638353090399 [AU]
 
 Step comparison  Energy Drift [au]  DIIS error drift  Gradient drift
        9            4.5318E-06         5.1717E-06       7.1906E-04
 ======================================================================
 ITERATION STEP  11
 CPU time [min]:     9.501                   Wall time [min]:     0.271
 

 SCF control                  : diis
 Damping factor/level shift   : 0.000/0.000
 DIIS [start/end/frequency]   :   2 / 50 /  1

 Constructing Fock-matrix...
 
 Pipek-Mezey localization...
 Step  Convergence
   1  21.260396417013
   2   9.806611021333
   3  12.967173139979
   4   4.233555519051
   5   0.515779776956
   6   0.030598343168
   7   0.007791192944
   8   0.002564517512
   9   0.000870260052
  10   0.000294564442
  11   0.000099475997
  12   0.000033372775
  13   0.000011341231
  14   0.000003766718
  15   0.000001251397
  16   0.000000417468
  17   0.000000140802
  18   0.000000048011
  19   0.000000016033
  20   0.000000005371
  21   0.000000001835
  22   0.000000000631
  23   0.000000000214
  24   0.000000000074
  25   0.000000000025
  26   0.000000000009
  27   0.000000000003
  28   0.000000000001
  29   0.000000000000
 CPU time [min]:     9.593                   Wall time [min]:     0.273
 
 Constructing local fitting domains...
 Local fitting domains are unchanged.
 
 First step of Coulomb + first step of exchange...
 Exchange contribution is evaluated for MOs 1 to 76.
   1% done.
  12% done.
  25% done.
  36% done.
  47% done.
  60% done.
  72% done.
  87% done.
 100% done.
 CPU time [min]:    10.224                   Wall time [min]:     0.291
 
 Fitting and assembly step of exchange...
 CPU time [min]:    10.316                   Wall time [min]:     0.294
 
 Second step of Coulomb...
   1% done.
  12% done.
  25% done.
  36% done.
  47% done.
  60% done.
  72% done.
  87% done.
 100% done.
 CPU time [min]:    10.441                   Wall time [min]:     0.297
 
 Gradient norm:      1.6653E-04
 DIIS is running in this iteration step.
 RMS of [F,P]:                                         0.00000183848801
 RMS of difference density:                            0.00000815610079
 Gap [au]:  0.22040721
 ALPHA OCC:  76
 BETA  OCC:  76
 
 ***HARTREE-FOCK ENERGY IN STEP  11 IS      -1078.3105648387809197 [AU]
 
 Step comparison  Energy Drift [au]  DIIS error drift  Gradient drift
       10            1.0035E-06         2.9004E-06       2.2083E-04
 ======================================================================
 ITERATION STEP  12
 CPU time [min]:    10.460                   Wall time [min]:     0.298
 

 SCF control                  : diis
 Damping factor/level shift   : 0.000/0.000
 DIIS [start/end/frequency]   :   2 / 50 /  1

 Constructing Fock-matrix...
 
 Pipek-Mezey localization...
 Step  Convergence
   1  22.468668167861
   2  12.446421136170
   3  19.532216049722
   4   7.022637667052
   5   0.889338068030
   6   0.131323155833
   7   0.011176433187
   8   0.003577903382
   9   0.001494446648
  10   0.000859265766
  11   0.000738666640
  12   0.000859042912
  13   0.001213926918
  14   0.002074526802
  15   0.004582609909
  16   0.013837970077
  17   0.038085580151
  18   0.028551038372
  19   0.005040181408
  20   0.000679653865
  21   0.000135646799
  22   0.000035080427
  23   0.000009832926
  24   0.000002740283
  25   0.000000734433
  26   0.000000187680
  27   0.000000045754
  28   0.000000010671
  29   0.000000002378
  30   0.000000000504
  31   0.000000000103
  32   0.000000000019
  33   0.000000000004
  34   0.000000000001
 CPU time [min]:    10.563                   Wall time [min]:     0.301
 
 Constructing local fitting domains...
 Local fitting domains are unchanged.
 
 First step of Coulomb + first step of exchange...
 Exchange contribution is evaluated for MOs 1 to 76.
   1% done.
  12% done.
  25% done.
  36% done.
  47% done.
  60% done.
  72% done.
  87% done.
 100% done.
 CPU time [min]:    11.195                   Wall time [min]:     0.318
 
 Fitting and assembly step of exchange...
 CPU time [min]:    11.286                   Wall time [min]:     0.321
 
 Second step of Coulomb...
   1% done.
  12% done.
  25% done.
  36% done.
  47% done.
  60% done.
  72% done.
  87% done.
 100% done.
 CPU time [min]:    11.411                   Wall time [min]:     0.324
 
 Gradient norm:      5.5669E-05
 DIIS is running in this iteration step.
 RMS of [F,P]:                                         0.00000058926102
 RMS of difference density:                            0.00000279446694
 Gap [au]:  0.22041010
 ALPHA OCC:  76
 BETA  OCC:  76
 
 ***HARTREE-FOCK ENERGY IN STEP  12 IS      -1078.3105649584585990 [AU]
 
 Step comparison  Energy Drift [au]  DIIS error drift  Gradient drift
       11            1.1968E-07         1.2492E-06       1.1086E-04
 ======================================================================
 ITERATION STEP  13
 CPU time [min]:    11.438                   Wall time [min]:     0.325
 

 SCF control                  : diis
 Damping factor/level shift   : 0.000/0.000
 DIIS [start/end/frequency]   :   2 / 50 /  1

 Constructing Fock-matrix...
 
 Pipek-Mezey localization...
 Step  Convergence
   1  22.423204255151
   2  11.775452131855
   3  16.883767653078
   4   5.109384799288
   5   0.269451766489
   6   0.035850089742
   7   0.013481995117
   8   0.030687461298
   9   0.042044902662
  10   0.031893864307
  11   0.016315253769
  12   0.006315591079
  13   0.002104281064
  14   0.000676915589
  15   0.000219337159
  16   0.000072243040
  17   0.000024024851
  18   0.000008029424
  19   0.000002688356
  20   0.000000901979
  21   0.000000303197
  22   0.000000101619
  23   0.000000034177
  24   0.000000011484
  25   0.000000003858
  26   0.000000001296
  27   0.000000000435
  28   0.000000000146
  29   0.000000000049
  30   0.000000000017
  31   0.000000000006
  32   0.000000000002
  33   0.000000000001
 CPU time [min]:    11.537                   Wall time [min]:     0.328
 
 Constructing local fitting domains...
 Local fitting domains are unchanged.
 
 First step of Coulomb + first step of exchange...
 Exchange contribution is evaluated for MOs 1 to 76.
   1% done.
  12% done.
  25% done.
  36% done.
  47% done.
  60% done.
  72% done.
  87% done.
 100% done.
 CPU time [min]:    12.171                   Wall time [min]:     0.345
 
 Fitting and assembly step of exchange...
 CPU time [min]:    12.263                   Wall time [min]:     0.348
 
 Second step of Coulomb...
   1% done.
  12% done.
  25% done.
  36% done.
  47% done.
  60% done.
  72% done.
  87% done.
 100% done.
 CPU time [min]:    12.388                   Wall time [min]:     0.351
 
 Gradient norm:      2.4186E-05
 DIIS is running in this iteration step.
 RMS of [F,P]:                                         0.00000023133232
 RMS of difference density:                            0.00000100620707
 Gap [au]:  0.22040989
 ALPHA OCC:  76
 BETA  OCC:  76
 
 ***HARTREE-FOCK ENERGY IN STEP  13 IS      -1078.3105649736889973 [AU]
 
 Step comparison  Energy Drift [au]  DIIS error drift  Gradient drift
       12            1.5230E-08         3.5793E-07       3.1483E-05
 ======================================================================
 ITERATION STEP  14
 CPU time [min]:    12.407                   Wall time [min]:     0.352
 

 SCF control                  : diis
 Damping factor/level shift   : 0.000/0.000
 DIIS [start/end/frequency]   :   2 / 50 /  1

 Constructing Fock-matrix...
 
 Pipek-Mezey localization...
 Step  Convergence
   1  23.876962241389
   2   9.854440254445
   3  15.043442373705
   4   6.489586828213
   5   0.730474995837
   6   0.339031535672
   7   0.016527714445
   8   0.005937247387
   9   0.002097899248
  10   0.000714852154
  11   0.000250494084
  12   0.000091910780
  13   0.000038720023
  14   0.000020810644
  15   0.000015381913
  16   0.000014055148
  17   0.000014253449
  18   0.000015064374
  19   0.000016207448
  20   0.000017615958
  21   0.000019305517
  22   0.000021332812
  23   0.000023790292
  24   0.000026804553
  25   0.000030557387
  26   0.000035311849
  27   0.000041457267
  28   0.000049589003
  29   0.000060651138
  30   0.000076211731
  31   0.000099009430
  32   0.000134114215
  33   0.000191757763
  34   0.000294547274
  35   0.000499446580
  36   0.000975425094
  37   0.002344448238
  38   0.007462473546
  39   0.026246137269
  40   0.035483390638
  41   0.011220986373
  42   0.002395364175
  43   0.000625734081
  44   0.000159783329
  45   0.000038136867
  46   0.000009393138
  47   0.000002480053
  48   0.000000680876
  49   0.000000186377
  50   0.000000049670
  51   0.000000012794
  52   0.000000003192
  53   0.000000000776
  54   0.000000000185
  55   0.000000000043
  56   0.000000000010
  57   0.000000000002
  58   0.000000000001
 CPU time [min]:    12.567                   Wall time [min]:     0.357
 
 Constructing local fitting domains...
 Local fitting domains are unchanged.
 
 First step of Coulomb + first step of exchange...
 Exchange contribution is evaluated for MOs 1 to 76.
   1% done.
  12% done.
  25% done.
  36% done.
  47% done.
  60% done.
  72% done.
  87% done.
 100% done.
 CPU time [min]:    13.201                   Wall time [min]:     0.374
 
 Fitting and assembly step of exchange...
 CPU time [min]:    13.292                   Wall time [min]:     0.377
 
 Second step of Coulomb...
   1% done.
  12% done.
  25% done.
  36% done.
  47% done.
  60% done.
  72% done.
  87% done.
 100% done.
 CPU time [min]:    13.418                   Wall time [min]:     0.380
 
 Gradient norm:      1.0954E-05
 DIIS is running in this iteration step.
 RMS of [F,P]:                                         0.00000012893350
 RMS of difference density:                            0.00000065695887
 Gap [au]:  0.22041224
 ALPHA OCC:  76
 BETA  OCC:  76
 
 ***HARTREE-FOCK ENERGY IN STEP  14 IS      -1078.3105649762374014 [AU]
 
 Step comparison  Energy Drift [au]  DIIS error drift  Gradient drift
       13            2.5484E-09         1.0240E-07       1.3232E-05
 ======================================================================
 ITERATION STEP  15
 CPU time [min]:    13.437                   Wall time [min]:     0.381
 

 SCF control                  : diis
 Damping factor/level shift   : 0.000/0.000
 DIIS [start/end/frequency]   :   2 / 50 /  1

 Constructing Fock-matrix...
 
 Pipek-Mezey localization...
 Step  Convergence
   1  21.452432707062
   2  12.541978666595
   3  16.402719308037
   4   5.304900082955
   5   1.293176910011
   6   0.065410817238
   7   0.013345588329
   8   0.015952805558
   9   0.038959610069
  10   0.028223337313
  11   0.006261421505
  12   0.001942623572
  13   0.000682165619
  14   0.000196434759
  15   0.000049353130
  16   0.000011575859
  17   0.000002638930
  18   0.000000599953
  19   0.000000138112
  20   0.000000032468
  21   0.000000007841
  22   0.000000001954
  23   0.000000000501
  24   0.000000000132
  25   0.000000000036
  26   0.000000000010
  27   0.000000000003
  28   0.000000000001
 CPU time [min]:    13.526                   Wall time [min]:     0.383
 
 Constructing local fitting domains...
 Local fitting domains are unchanged.
 
 First step of Coulomb + first step of exchange...
 Exchange contribution is evaluated for MOs 1 to 76.
   1% done.
  12% done.
  25% done.
  36% done.
  47% done.
  60% done.
  72% done.
  87% done.
 100% done.
 CPU time [min]:    14.159                   Wall time [min]:     0.401
 
 Fitting and assembly step of exchange...
 CPU time [min]:    14.251                   Wall time [min]:     0.404
 
 Second step of Coulomb...
   1% done.
  12% done.
  25% done.
  36% done.
  47% done.
  60% done.
  72% done.
  87% done.
 100% done.
 CPU time [min]:    14.377                   Wall time [min]:     0.407
 
 Gradient norm:      3.0888E-06
 DIIS is running in this iteration step.
 RMS of [F,P]:                                         0.00000003560320
 RMS of difference density:                            0.00000018580373
 Gap [au]:  0.22041267
 ALPHA OCC:  76
 BETA  OCC:  76
 
 ***HARTREE-FOCK ENERGY IN STEP  15 IS      -1078.3105649769622687 [AU]
 
 Step comparison  Energy Drift [au]  DIIS error drift  Gradient drift
       14            7.2487E-10         9.3330E-08       7.8655E-06
 ======================================================================
 ITERATION STEP  16
 CPU time [min]:    14.396                   Wall time [min]:     0.408
 

 SCF control                  : diis
 Damping factor/level shift   : 0.000/0.000
 DIIS [start/end/frequency]   :   2 / 50 /  1

 Constructing Fock-matrix...
 
 Pipek-Mezey localization...
 Step  Convergence
   1  22.144028635577
   2  10.140656601818
   3  15.575830798099
   4   5.621093047007
   5   0.679960791908
   6   0.067794425714
   7   0.044953804662
   8   0.027815521764
   9   0.013102843928
  10   0.004884671170
  11   0.001651130760
  12   0.000563386679
  13   0.000183494775
  14   0.000065158397
  15   0.000021962257
  16   0.000007327571
  17   0.000002640797
  18   0.000000875903
  19   0.000000315511
  20   0.000000104351
  21   0.000000036839
  22   0.000000013125
  23   0.000000004454
  24   0.000000001496
  25   0.000000000540
  26   0.000000000184
  27   0.000000000064
  28   0.000000000022
  29   0.000000000008
  30   0.000000000003
  31   0.000000000001
 CPU time [min]:    14.492                   Wall time [min]:     0.410
 
 Constructing local fitting domains...
 Local fitting domains are unchanged.
 
 First step of Coulomb + first step of exchange...
 Exchange contribution is evaluated for MOs 1 to 76.
   1% done.
  12% done.
  25% done.
  36% done.
  47% done.
  60% done.
  72% done.
  87% done.
 100% done.
 CPU time [min]:    15.125                   Wall time [min]:     0.428
 
 Fitting and assembly step of exchange...
 CPU time [min]:    15.217                   Wall time [min]:     0.431
 
 Second step of Coulomb...
   1% done.
  12% done.
  25% done.
  36% done.
  47% done.
  60% done.
  72% done.
  87% done.
 100% done.
 CPU time [min]:    15.342                   Wall time [min]:     0.434
 
 Gradient norm:      9.2203E-07
 DIIS is running in this iteration step.
 RMS of [F,P]:                                         0.00000002023934
 RMS of difference density:                            0.00000005231440
 Gap [au]:  0.22041274
 ALPHA OCC:  76
 BETA  OCC:  76
 
 ***HARTREE-FOCK ENERGY IN STEP  16 IS      -1078.3105649770204764 [AU]
 
 Step comparison  Energy Drift [au]  DIIS error drift  Gradient drift
       15            5.8208E-11         1.5364E-08       2.1667E-06
 ======================================================================
 
 SUCCESS...
 THE SCF ITERATION HAS CONVERGED!
 
                   A   
 FINAL ALPHA OCC:  76
 FINAL BETA  OCC:  76
 
 ***FINAL HARTREE-FOCK ENERGY:      -1078.3105649770204764 [AU]
 
 Orbital energies [au]:
      Irrep         Alpha          Beta
    1   A         -4.694373      -4.694373
    2   A         -4.690091      -4.690091
    3   A         -4.690056      -4.690056
    4   A         -4.682093      -4.682093
    5   A         -4.682040      -4.682040
    6   A         -4.681717      -4.681717
    7   A         -4.681675      -4.681675
    8   A         -4.677860      -4.677860
    9   A         -2.766247      -2.766247
   10   A         -2.757848      -2.757848
   11   A         -2.756290      -2.756290
   12   A         -2.755103      -2.755103
   13   A         -2.754262      -2.754262
   14   A         -2.752948      -2.752948
   15   A         -2.752202      -2.752202
   16   A         -2.751818      -2.751818
   17   A         -2.749931      -2.749931
   18   A         -2.749670      -2.749670
   19   A         -2.749191      -2.749191
   20   A         -2.745877      -2.745877
   21   A         -2.745851      -2.745851
   22   A         -2.744751      -2.744751
   23   A         -2.743810      -2.743810
   24   A         -2.743676      -2.743676
   25   A         -2.743534      -2.743534
   26   A         -2.743162      -2.743162
   27   A         -2.742975      -2.742975
[...]
  229    7Au2f+2       7Au2f+3       7Au3f-3       7Au3f-2       7Au3f-1       7Au3f0        7Au3f+1       7Au3f+2       7Au3f+3       7Au4f-3   
  230    7Au4f-2       7Au4f-1       7Au4f0        7Au4f+1       7Au4f+2       7Au4f+3       7Au5f-3       7Au5f-2       7Au5f-1       7Au5f0    
  231    7Au5f+1       7Au5f+2       7Au5f+3       7Au6f-3       7Au6f-2       7Au6f-1       7Au6f0        7Au6f+1       7Au6f+2       7Au6f+3   
  232    7Au7f-3       7Au7f-2       7Au7f-1       7Au7f0        7Au7f+1       7Au7f+2       7Au7f+3       7Au8f-3       7Au8f-2       7Au8f-1   
  233    7Au8f0        7Au8f+1       7Au8f+2       7Au8f+3       7Au9f-3       7Au9f-2       7Au9f-1       7Au9f0        7Au9f+1       7Au9f+2   
  234    7Au9f+3       7Au10f-3      7Au10f-2      7Au10f-1      7Au10f0       7Au10f+1      7Au10f+2      7Au10f+3      7Au1g-4       7Au1g-3   
  235    7Au1g-2       7Au1g-1       7Au1g0        7Au1g+1       7Au1g+2       7Au1g+3       7Au1g+4       7Au2g-4       7Au2g-3       7Au2g-2   
  236    7Au2g-1       7Au2g0        7Au2g+1       7Au2g+2       7Au2g+3       7Au2g+4       7Au3g-4       7Au3g-3       7Au3g-2       7Au3g-1   
  237    7Au3g0        7Au3g+1       7Au3g+2       7Au3g+3       7Au3g+4       7Au4g-4       7Au4g-3       7Au4g-2       7Au4g-1       7Au4g0    
  238    7Au4g+1       7Au4g+2       7Au4g+3       7Au4g+4       7Au5g-4       7Au5g-3       7Au5g-2       7Au5g-1       7Au5g0        7Au5g+1   
  239    7Au5g+2       7Au5g+3       7Au5g+4       7Au6g-4       7Au6g-3       7Au6g-2       7Au6g-1       7Au6g0        7Au6g+1       7Au6g+2   
  240    7Au6g+3       7Au6g+4       7Au7g-4       7Au7g-3       7Au7g-2       7Au7g-1       7Au7g0        7Au7g+1       7Au7g+2       7Au7g+3   
  241    7Au7g+4       7Au8g-4       7Au8g-3       7Au8g-2       7Au8g-1       7Au8g0        7Au8g+1       7Au8g+2       7Au8g+3       7Au8g+4   
  242    7Au1h-5       7Au1h-4       7Au1h-3       7Au1h-2       7Au1h-1       7Au1h0        7Au1h+1       7Au1h+2       7Au1h+3       7Au1h+4   
  243    7Au1h+5       7Au2h-5       7Au2h-4       7Au2h-3       7Au2h-2       7Au2h-1       7Au2h0        7Au2h+1       7Au2h+2       7Au2h+3   
  244    7Au2h+4       7Au2h+5       7Au3h-5       7Au3h-4       7Au3h-3       7Au3h-2       7Au3h-1       7Au3h0        7Au3h+1       7Au3h+2   
  245    7Au3h+3       7Au3h+4       7Au3h+5       7Au4h-5       7Au4h-4       7Au4h-3       7Au4h-2       7Au4h-1       7Au4h0        7Au4h+1   
  246    7Au4h+2       7Au4h+3       7Au4h+4       7Au4h+5       7Au5h-5       7Au5h-4       7Au5h-3       7Au5h-2       7Au5h-1       7Au5h0    
  247    7Au5h+1       7Au5h+2       7Au5h+3       7Au5h+4       7Au5h+5       7Au1i-6       7Au1i-5       7Au1i-4       7Au1i-3       7Au1i-2   
  248    7Au1i-1       7Au1i0        7Au1i+1       7Au1i+2       7Au1i+3       7Au1i+4       7Au1i+5       7Au1i+6       7Au2i-6       7Au2i-5   
  249    7Au2i-4       7Au2i-3       7Au2i-2       7Au2i-1       7Au2i0        7Au2i+1       7Au2i+2       7Au2i+3       7Au2i+4       7Au2i+5   
  250    7Au2i+6       7Au3i-6       7Au3i-5       7Au3i-4       7Au3i-3       7Au3i-2       7Au3i-1       7Au3i0        7Au3i+1       7Au3i+2   
  251    7Au3i+3       7Au3i+4       7Au3i+5       7Au3i+6       7Au4i-6       7Au4i-5       7Au4i-4       7Au4i-3       7Au4i-2       7Au4i-1   
  252    7Au4i0        7Au4i+1       7Au4i+2       7Au4i+3       7Au4i+4       7Au4i+5       7Au4i+6       8Au1s         8Au2s         8Au3s     
  253    8Au4s         8Au5s         8Au6s         8Au7s         8Au8s         8Au9s         8Au10s        8Au11s        8Au12s        8Au13s    
  254    8Au1pz        8Au1py        8Au1px        8Au2pz        8Au2py        8Au2px        8Au3pz        8Au3py        8Au3px        8Au4pz    
  255    8Au4py        8Au4px        8Au5pz        8Au5py        8Au5px        8Au6pz        8Au6py        8Au6px        8Au7pz        8Au7py    
  256    8Au7px        8Au8pz        8Au8py        8Au8px        8Au9pz        8Au9py        8Au9px        8Au10pz       8Au10py       8Au10px   
  257    8Au11pz       8Au11py       8Au11px       8Au12pz       8Au12py       8Au12px       8Au13pz       8Au13py       8Au13px       8Au1d-2   
  258    8Au1d-1       8Au1d0        8Au1d+1       8Au1d+2       8Au2d-2       8Au2d-1       8Au2d0        8Au2d+1       8Au2d+2       8Au3d-2   
  259    8Au3d-1       8Au3d0        8Au3d+1       8Au3d+2       8Au4d-2       8Au4d-1       8Au4d0        8Au4d+1       8Au4d+2       8Au5d-2   
  260    8Au5d-1       8Au5d0        8Au5d+1       8Au5d+2       8Au6d-2       8Au6d-1       8Au6d0        8Au6d+1       8Au6d+2       8Au7d-2   
  261    8Au7d-1       8Au7d0        8Au7d+1       8Au7d+2       8Au8d-2       8Au8d-1       8Au8d0        8Au8d+1       8Au8d+2       8Au9d-2   
  262    8Au9d-1       8Au9d0        8Au9d+1       8Au9d+2       8Au10d-2      8Au10d-1      8Au10d0       8Au10d+1      8Au10d+2      8Au11d-2  
  263    8Au11d-1      8Au11d0       8Au11d+1      8Au11d+2      8Au12d-2      8Au12d-1      8Au12d0       8Au12d+1      8Au12d+2      8Au1f-3   
  264    8Au1f-2       8Au1f-1       8Au1f0        8Au1f+1       8Au1f+2       8Au1f+3       8Au2f-3       8Au2f-2       8Au2f-1       8Au2f0    
  265    8Au2f+1       8Au2f+2       8Au2f+3       8Au3f-3       8Au3f-2       8Au3f-1       8Au3f0        8Au3f+1       8Au3f+2       8Au3f+3   
  266    8Au4f-3       8Au4f-2       8Au4f-1       8Au4f0        8Au4f+1       8Au4f+2       8Au4f+3       8Au5f-3       8Au5f-2       8Au5f-1   
  267    8Au5f0        8Au5f+1       8Au5f+2       8Au5f+3       8Au6f-3       8Au6f-2       8Au6f-1       8Au6f0        8Au6f+1       8Au6f+2   
  268    8Au6f+3       8Au7f-3       8Au7f-2       8Au7f-1       8Au7f0        8Au7f+1       8Au7f+2       8Au7f+3       8Au8f-3       8Au8f-2   
  269    8Au8f-1       8Au8f0        8Au8f+1       8Au8f+2       8Au8f+3       8Au9f-3       8Au9f-2       8Au9f-1       8Au9f0        8Au9f+1   
  270    8Au9f+2       8Au9f+3       8Au10f-3      8Au10f-2      8Au10f-1      8Au10f0       8Au10f+1      8Au10f+2      8Au10f+3      8Au1g-4   
  271    8Au1g-3       8Au1g-2       8Au1g-1       8Au1g0        8Au1g+1       8Au1g+2       8Au1g+3       8Au1g+4       8Au2g-4       8Au2g-3   
  272    8Au2g-2       8Au2g-1       8Au2g0        8Au2g+1       8Au2g+2       8Au2g+3       8Au2g+4       8Au3g-4       8Au3g-3       8Au3g-2   
  273    8Au3g-1       8Au3g0        8Au3g+1       8Au3g+2       8Au3g+3       8Au3g+4       8Au4g-4       8Au4g-3       8Au4g-2       8Au4g-1   
  274    8Au4g0        8Au4g+1       8Au4g+2       8Au4g+3       8Au4g+4       8Au5g-4       8Au5g-3       8Au5g-2       8Au5g-1       8Au5g0    
  275    8Au5g+1       8Au5g+2       8Au5g+3       8Au5g+4       8Au6g-4       8Au6g-3       8Au6g-2       8Au6g-1       8Au6g0        8Au6g+1   
  276    8Au6g+2       8Au6g+3       8Au6g+4       8Au7g-4       8Au7g-3       8Au7g-2       8Au7g-1       8Au7g0        8Au7g+1       8Au7g+2   
  277    8Au7g+3       8Au7g+4       8Au8g-4       8Au8g-3       8Au8g-2       8Au8g-1       8Au8g0        8Au8g+1       8Au8g+2       8Au8g+3   
  278    8Au8g+4       8Au1h-5       8Au1h-4       8Au1h-3       8Au1h-2       8Au1h-1       8Au1h0        8Au1h+1       8Au1h+2       8Au1h+3   
  279    8Au1h+4       8Au1h+5       8Au2h-5       8Au2h-4       8Au2h-3       8Au2h-2       8Au2h-1       8Au2h0        8Au2h+1       8Au2h+2   
  280    8Au2h+3       8Au2h+4       8Au2h+5       8Au3h-5       8Au3h-4       8Au3h-3       8Au3h-2       8Au3h-1       8Au3h0        8Au3h+1   
  281    8Au3h+2       8Au3h+3       8Au3h+4       8Au3h+5       8Au4h-5       8Au4h-4       8Au4h-3       8Au4h-2       8Au4h-1       8Au4h0    
  282    8Au4h+1       8Au4h+2       8Au4h+3       8Au4h+4       8Au4h+5       8Au5h-5       8Au5h-4       8Au5h-3       8Au5h-2       8Au5h-1   
  283    8Au5h0        8Au5h+1       8Au5h+2       8Au5h+3       8Au5h+4       8Au5h+5       8Au1i-6       8Au1i-5       8Au1i-4       8Au1i-3   
  284    8Au1i-2       8Au1i-1       8Au1i0        8Au1i+1       8Au1i+2       8Au1i+3       8Au1i+4       8Au1i+5       8Au1i+6       8Au2i-6   
  285    8Au2i-5       8Au2i-4       8Au2i-3       8Au2i-2       8Au2i-1       8Au2i0        8Au2i+1       8Au2i+2       8Au2i+3       8Au2i+4   
  286    8Au2i+5       8Au2i+6       8Au3i-6       8Au3i-5       8Au3i-4       8Au3i-3       8Au3i-2       8Au3i-1       8Au3i0        8Au3i+1   
  287    8Au3i+2       8Au3i+3       8Au3i+4       8Au3i+5       8Au3i+6       8Au4i-6       8Au4i-5       8Au4i-4       8Au4i-3       8Au4i-2   
  288    8Au4i-1       8Au4i0        8Au4i+1       8Au4i+2       8Au4i+3       8Au4i+4       8Au4i+5       8Au4i+6   
 
 Maximum number of basis functions per shell:   72
 Total number of basis functions:   2888
 
 
 Old basis set for SCF restart
 
   1  Au def2-svp [ 7s 6p 5d 1f | 6s 3p 2d 1f ]
   2  Au def2-svp [ 7s 6p 5d 1f | 6s 3p 2d 1f ]
   3  Au def2-svp [ 7s 6p 5d 1f | 6s 3p 2d 1f ]
   4  Au def2-svp [ 7s 6p 5d 1f | 6s 3p 2d 1f ]
   5  Au def2-svp [ 7s 6p 5d 1f | 6s 3p 2d 1f ]
   6  Au def2-svp [ 7s 6p 5d 1f | 6s 3p 2d 1f ]
   7  Au def2-svp [ 7s 6p 5d 1f | 6s 3p 2d 1f ]
   8  Au def2-svp [ 7s 6p 5d 1f | 6s 3p 2d 1f ]
 
 Basis functions:
            1             2             3             4             5             6             7             8             9            10
    0    1Au1s         1Au2s         1Au3s         1Au4s         1Au5s         1Au6s         1Au1pz        1Au1py        1Au1px        1Au2pz    
    1    1Au2py        1Au2px        1Au3pz        1Au3py        1Au3px        1Au1d-2       1Au1d-1       1Au1d0        1Au1d+1       1Au1d+2   
    2    1Au2d-2       1Au2d-1       1Au2d0        1Au2d+1       1Au2d+2       1Au1f-3       1Au1f-2       1Au1f-1       1Au1f0        1Au1f+1   
    3    1Au1f+2       1Au1f+3       2Au1s         2Au2s         2Au3s         2Au4s         2Au5s         2Au6s         2Au1pz        2Au1py    
    4    2Au1px        2Au2pz        2Au2py        2Au2px        2Au3pz        2Au3py        2Au3px        2Au1d-2       2Au1d-1       2Au1d0    
    5    2Au1d+1       2Au1d+2       2Au2d-2       2Au2d-1       2Au2d0        2Au2d+1       2Au2d+2       2Au1f-3       2Au1f-2       2Au1f-1   
    6    2Au1f0        2Au1f+1       2Au1f+2       2Au1f+3       3Au1s         3Au2s         3Au3s         3Au4s         3Au5s         3Au6s     
    7    3Au1pz        3Au1py        3Au1px        3Au2pz        3Au2py        3Au2px        3Au3pz        3Au3py        3Au3px        3Au1d-2   
    8    3Au1d-1       3Au1d0        3Au1d+1       3Au1d+2       3Au2d-2       3Au2d-1       3Au2d0        3Au2d+1       3Au2d+2       3Au1f-3   
    9    3Au1f-2       3Au1f-1       3Au1f0        3Au1f+1       3Au1f+2       3Au1f+3       4Au1s         4Au2s         4Au3s         4Au4s     
   10    4Au5s         4Au6s         4Au1pz        4Au1py        4Au1px        4Au2pz        4Au2py        4Au2px        4Au3pz        4Au3py    
   11    4Au3px        4Au1d-2       4Au1d-1       4Au1d0        4Au1d+1       4Au1d+2       4Au2d-2       4Au2d-1       4Au2d0        4Au2d+1   
   12    4Au2d+2       4Au1f-3       4Au1f-2       4Au1f-1       4Au1f0        4Au1f+1       4Au1f+2       4Au1f+3       5Au1s         5Au2s     
   13    5Au3s         5Au4s         5Au5s         5Au6s         5Au1pz        5Au1py        5Au1px        5Au2pz        5Au2py        5Au2px    
   14    5Au3pz        5Au3py        5Au3px        5Au1d-2       5Au1d-1       5Au1d0        5Au1d+1       5Au1d+2       5Au2d-2       5Au2d-1   
   15    5Au2d0        5Au2d+1       5Au2d+2       5Au1f-3       5Au1f-2       5Au1f-1       5Au1f0        5Au1f+1       5Au1f+2       5Au1f+3   
   16    6Au1s         6Au2s         6Au3s         6Au4s         6Au5s         6Au6s         6Au1pz        6Au1py        6Au1px        6Au2pz    
   17    6Au2py        6Au2px        6Au3pz        6Au3py        6Au3px        6Au1d-2       6Au1d-1       6Au1d0        6Au1d+1       6Au1d+2   
   18    6Au2d-2       6Au2d-1       6Au2d0        6Au2d+1       6Au2d+2       6Au1f-3       6Au1f-2       6Au1f-1       6Au1f0        6Au1f+1   
   19    6Au1f+2       6Au1f+3       7Au1s         7Au2s         7Au3s         7Au4s         7Au5s         7Au6s         7Au1pz        7Au1py    
   20    7Au1px        7Au2pz        7Au2py        7Au2px        7Au3pz        7Au3py        7Au3px        7Au1d-2       7Au1d-1       7Au1d0    
   21    7Au1d+1       7Au1d+2       7Au2d-2       7Au2d-1       7Au2d0        7Au2d+1       7Au2d+2       7Au1f-3       7Au1f-2       7Au1f-1   
   22    7Au1f0        7Au1f+1       7Au1f+2       7Au1f+3       8Au1s         8Au2s         8Au3s         8Au4s         8Au5s         8Au6s     
   23    8Au1pz        8Au1py        8Au1px        8Au2pz        8Au2py        8Au2px        8Au3pz        8Au3py        8Au3px        8Au1d-2   
   24    8Au1d-1       8Au1d0        8Au1d+1       8Au1d+2       8Au2d-2       8Au2d-1       8Au2d0        8Au2d+1       8Au2d+2       8Au1f-3   
   25    8Au1f-2       8Au1f-1       8Au1f0        8Au1f+1       8Au1f+2       8Au1f+3   
 
 Maximum number of basis functions per shell:   72
 Total number of basis functions:    256
 
 
 Effective core potentials:
 
   1  Au mcdhf-ecp-60        
   2  Au mcdhf-ecp-60        
   3  Au mcdhf-ecp-60        
   4  Au mcdhf-ecp-60        
   5  Au mcdhf-ecp-60        
   6  Au mcdhf-ecp-60        
   7  Au mcdhf-ecp-60        
   8  Au mcdhf-ecp-60        
 
 Calculation of prescreening integrals...
 CPU time [min]:    31.243                   Wall time [min]:     0.915
 
 Calculation of two-center Coulomb integrals...
   1% done.
  13% done.
  25% done.
  37% done.
  51% done.
  62% done.
  73% done.
  84% done.
  96% done.
 100% done.
 CPU time [min]:    31.305                   Wall time [min]:     0.917
 
 Cholesky decomposition of the inverse of the two-center matrix...
 CPU time [min]:    31.451                   Wall time [min]:     0.921
 
 Calculation of three-center Coulomb integrals...
   1% done.
  12% done.
  25% done.
  36% done.
  48% done.
  61% done.
  72% done.
  89% done.
 100% done.
 CPU time [min]:    58.019                   Wall time [min]:     1.667

 ************************ 2023-02-04 10:53:06 *************************
 Executing drpa...

 Three-index integral transformation
 
 Allocation of 220.0 Gbytes of memory...
 Minimal memory requirement for (ai|P) and (ij|P) integrals:      221.8 MB

 Calculating (ai|P) and (ij|P) integrals...
 Number of integral batches:    1
 Occupied indices per batch:   76
 
 Transforming integrals of batch 1...
 CPU time [min]:   615.267                   Wall time [min]:    21.237
 

 Constructing MP2 natural orbitals...

 Threshold for individual occupations:     1.0000E-05
 Corresponding cummulative occupation threshold:  0.99986966  0.99986620
 Total number of virtual orbitals:     900
 Number of virtual natural orbitals:   714  (79.33%)
 
 Transforming (ai|P) integrals to the NO basis...
 Number of integral batches:    1
 Occupied indices per batch:   76
 
 Transforming integrals of batch 1 to the NO basis...
 CPU time [min]:   871.409                   Wall time [min]:    30.882

 Calculating (ab|P) integrals...
 Minimal memory requirement for (ab|P) integrals:      132.6 MB
 Number of integral batches:    1
 Virtual indices per batch:   714

 Transforming integrals of batch 1...
 CPU time [min]:  1016.159                   Wall time [min]:    37.555
 

 Constructing natural auxiliary functions...

 Threshold for eigenvalues:     1.0000E-02
 Total number of auxiliary functions:    2888
 Number of natural auxiliary functions:  2220  (76.87%)

 Transforming (ai|P) and (ij|P) integrals to the NAF basis...
 Number of integral batches:    1
 Occupied indices per batch:   76
 
 Transforming integrals of batch 1 to the NAF basis...
 CPU time [min]:  1273.063                   Wall time [min]:    47.211

 Transforming (ab|P) integrals to the NAF basis...
 Number of integral batches:    1
 Virtual indices per batch:   714

 Transforming integrals of batch 1 to the NAF basis...
 CPU time [min]:  1276.013                   Wall time [min]:    47.961
 

 Results in full basis:
 
 
 Reference energy [au]:                     -1078.429828598140
 DF-MP2 singlet pair energy [au]:              -4.284093780940
 DF-MP2 triplet pair energy [au]:              -2.081986085940
 DF-SCS-MP2 correlation energy [au]:           -5.834907899107
 DF-SCS-MP2 energy [au]:                    -1084.264736497248
 DF-SOS-MP2 correlation energy [au]:           -5.569321915221
 DF-SOS-MP2 energy [au]:                    -1083.999150513362
 DF-MP2 correlation energy [au]:               -6.366079866879
 DF-MP2 energy [au]:                        -1084.795908465020

 Results in FNO basis:
 
 
 Reference energy [au]:                     -1078.429828598140
 DF-MP2 singlet pair energy [au]:              -4.277932118042
 DF-MP2 triplet pair energy [au]:              -2.080986402346
 DF-SCS-MP2 correlation energy [au]:           -5.827180675765
 DF-SCS-MP2 energy [au]:                    -1084.257009273906
 DF-SOS-MP2 correlation energy [au]:           -5.561311753454
 DF-SOS-MP2 energy [au]:                    -1083.991140351595
 DF-MP2 correlation energy [au]:               -6.358918520387
 DF-MP2 energy [au]:                        -1084.788747118528

 Results in NAF basis:
 
 
 Reference energy [au]:                     -1078.429828598140
 DF-MP2 singlet pair energy [au]:              -4.277862292862
 DF-MP2 triplet pair energy [au]:              -2.081007743246
 DF-SCS-MP2 correlation energy [au]:           -5.827103999183
 DF-SCS-MP2 energy [au]:                    -1084.256932597323
 DF-SOS-MP2 correlation energy [au]:           -5.561220980720
 DF-SOS-MP2 energy [au]:                    -1083.991049578861
 DF-MP2 correlation energy [au]:               -6.358870036108
 DF-MP2 energy [au]:                        -1084.788698634248

 ************************ 2023-02-04 11:41:06 *************************
 Executing ccsd...

 Allocation of 220.0 Gbytes of memory...

 Direct DF-CCSD(T) calculation
 
 Convergence criterion:  1.0E-06
 
 Number of occupied/virtual/auxiliary orbitals:    76   714  2220
  83216.69 MB is the minimal memory requirement for (T)
  39169.70 MB is the minimal memory requirement for CCSD
 
 Reference energy [au]:           -1078.429828598140
 T1 contribution [au]:                0.000000000000
 Same spin MP2 energy [au]:          -2.080997029651
 Opposite spin MP2 energy [au]:      -4.277897150835
 MP2 correlation energy [au]:        -6.358894180486
 Total MP2 energy [au]:           -1084.788722778626
 MP2 correction [au]:                -0.007185686394
 
 
 CPU time [min]:    60.587                   Wall time [min]:    17.012
 
 Starting CCSD iterations...
 
                     Residual norm          Energy
 Iteration  1        0.824973994189    -1083.943210586658
 Iteration  2        0.339088527328    -1084.199087502909
 Iteration  3        0.065489193333    -1084.242151367082
 Iteration  4        0.034804913822    -1084.246840690458
 Iteration  5        0.014988997071    -1084.240149309442
 Iteration  6        0.007483664280    -1084.238702580963
 Iteration  7        0.003751096595    -1084.239875025242
 Iteration  8        0.001928860922    -1084.240233539372
 Iteration  9        0.001023784515    -1084.240176938446
 Iteration 10        0.000567411573    -1084.240156941236
 Iteration 11        0.000281680111    -1084.240157961880
 Iteration 12        0.000137358123    -1084.240144354818
 Iteration 13        0.000068072522    -1084.240140209229
 Iteration 14        0.000034488204    -1084.240144747907
 
 Fatal error in ccsd.
 Program will stop.
 
 ************************ 2023-02-05 05:02:22 *************************
                   Error at the termination of mrcc.
 **********************************************************************
