 **********************************************************************
                          MRCC program system
 **********************************************************************
 
                              Written by
     Mihaly Kallay, Peter R. Nagy, David Mester, Laszlo Gyevi-Nagy,
        Jozsef Csoka, P. Bernat Szabo, Zoltan Rolik, Gyula Samu,
     Jozsef Csontos, Bence Hegely, Adam Ganyecz, Istvan Ladjanszki,
       Lorant Szegedy, Bence Ladoczki, Klara Petrov, Mate Farkas,
                    Pal D. Mezei, and Reka A. Horvath
 
        Department of Physical Chemistry and Materials Science
            Budapest University of Technology and Economics
                  Budapest P.O.Box 91, H-1521 Hungary
 
                              www.mrcc.hu
 
                      Release date: March 18, 2022

 ************************ 2022-12-22 19:35:14 *************************
 Executing minp...

 Reading input from MINP...
 
 Input file:
 
calc=LNO-CCSD(T)
verbosity=3
mem=220GB
symm=off
unit=angs
scfiguess=small
scfalg=locfit1
lcorthr=normal
bpedo=0.99999
usedisk=0
ccmaxit=400
ccsdalg=dfdirect
ccsdthreads=4
ccsdmkl=thr
ptthreads=4
ECP=MCDHF-ECP-10
basis=bse_ACVTZ
basis_sm=def2-SVP
dfbasis_scf=def2-QZVPP-RI-JK
dfbasis_cor=bse_ACVTZ_mp2fit
core=0
unit=angs
geom=xyz
8
Cu8_4
Cu    -1.08811376     0.00533327     1.22684637
Cu     1.54147726     0.37603058    -0.41630804
Cu     0.21270861    -0.55017840    -2.14095381
Cu     0.46388836     1.83699629     1.15892732
Cu    -0.68792452     1.24407023    -0.82127330
Cu     1.19826337    -0.44128443     1.81747850
Cu     0.23552610    -1.62478027     0.00948306
Cu    -1.87582542    -0.84618728    -0.83420009

ghost=serialno


 
 
 Checking keyword combinations...
 
 Keywords:
 
 active=none
 agrid=ld0006-ld0590
 agrid_pssp=ld0006-ld0194
 agrid_pssp_sm=ld0006-ld0074
 basis=bse_acvtz
 basis_sm=def2-svp
 basopt=off
 bfbasis=none
 bfgsmem=10
 bfgstol=1.0d-3
 bpcompo=0.985
 bpcompv=0.98
 bpdfo=0.985
 bpocc=0.99999
 bppdo=0.999d0
 bppdv=0.98
 bpedo=0.99999
 bpedv=0.995d0
 calc=ccsd(t)
 ccmaxit=400
 ccprog=ccsd
 ccsdalg=dfdirect
 ccsdmkl=thr
 ccsdrest=off
 ccsdthreads=4
 cctol=5
 charge=0
 cialg=direct
 ciguess=off
 cmpgrp=auto
 comprest=off
 core=corr
 corembed=off
 csapprox=off
 cvs=off
 dboc=off
 delocsomofact=
 dendec=cholesky
 dens=0
 dfalg=lineq
 dfbasis_cab=none
 dfbasis_cor=bse_acvtz_mp2fit
 dfbasis_scf=def2-qzvpp-ri-jk
 dfbasis_scf_sm=def2-qzvpp-ri-jk
 dfintran=drpa
 dft=off
 dhexc=adc(2)
 diag=david
 docc=
 domrad=10.d0
 drpaalg=auto
 dual=off
 dual_df=off
 ecp=mcdhf-ecp-10
 edisp=off
 edisp_embed=off
 embed=off
 etemp=300
 epert=none
 eps=
 espcharge=off
 excrad=1.0
 excrad_fin=0.100000000D-02
 fitting=coulomb
 fmm=off
 fmmord=8
 freq=off
 gamma=1.d0
 gauss=spher
 geom=xyz
 gopt=off
 ghost=serialno
 gtol=7
 grdens=off
 gridbatch_cos=2000
 grtol=10
 guido_ct=off
 hamilton=dc
 iface=none
 intalg=auto
 itol=10
 laptol=1.d-2
 lccoporder=lccfirst
 lcorthr=normal
 lccrest=off
 lmp2dens=on
 lnoepso=1e-5
 lnoepsv=1e-6
 boysalg=jacobi
 localcc=2021
 localcorrsymm=off
 locintrf=direct
 mact=
 maxact=off
 maxdim=100
 maxex=0
 maxmicroit=100
 mcscfiguess=hf
 mem=220gb
 mmprog=
 molden=on
 mpitasks=1
 mulmet=3
 mult=
 nacto=0
 nactv=0
 naf_amp=1.d-2
 naf_cor=1e-2
 naf_scf=off
 nafalg=albe
 naftyp=jpq
 nchol=auto
 ndeps=1e-3
 nstate=1
 nsing=0
 nto=off
 ntrip=0
 occ=
 occri=off
 oniom=off
 oniom_eechg=off
 oniom_pcm=off
 oniom_qcorr=off
 optalg=
 optmaxit=50
 optetol=1e-6
 optex=0
 optgtol=1e-4
 optstol=1e-3
 orblocc=boys
 orbloce=off
 orbloco=boys
 orblocv=pao
 orblocguess=cholesky
 osveps=-1.d0
 ovirt=off
 ovltol=1e-7
 ovosnorb=80.0
 pcm=off
 popul=off
 pressure=100000
 pssp=off
 ptfreq=0.0
 ptthreads=4
 qro=off
 qscf=off
 qmmm=off
 redcost_exc=off
 redcost_tddft=0.985d0
 refdet=none
 rest=0
 rgrid=log3
 rism=off
 rohfcore=standard
 rohftype=semicanonical
 scfalg=locfit1
 scf_conv=difficult
 scfdamp=0.0d0
 scfdamp_mode=off
 scfdamp_end=50
 scfdamp_dampstep=0.d0
 scfdamp_dtol=0.0d0
 scfdamp_maxfact=0.0d0
 scfdamp_minfact=0.0d0
 scfdiis=on
 scfdiis_dtol=0.0d0
 scfdiis_end=50
 scfdiis_start=2
 scfdiis_step=1
 scfdiis_watch=off
 scfdiis_wrange=10
 scfdiis_wlimit=5
 scfdiis_delmax=2
 scfdtol=7
 scfext=10
 scfguessdens=
 scfiguess=small
 scfloc=pm
 scflshift=0.20
 scflshift_end=8
 scflshift_dtol=0.0
 scflshift_gaptol=0.20
 scfmaxit=50
 scftype=
 scftol=6
 scspe=1.d0
 scsph=1.d0
 scsps=1.2d0
 scsps_t=1.2d0
 scspt=0.33333333333333
 scspt_t=0.33333333333333
 scspv=1.d0
 spairtol=-1.d0
 sqmprog=
 subminp=top
 symm=0
 talg=lapl
 temp=298.15
 test=off
 theodore=off
 tlmo=0.999
 tpao=0.94
 tprint=off
 uncontract=off
 unit=angs
 usedisk=0
 verbosity=3
 wpairtol=1.d-5
 
 Calculating integrals for small-basis SCF...

 ************************ 2022-12-22 19:35:14 *************************
 Executing integ...

 Allocation of 220.0 Gbytes of memory...
 
 
 Number of atoms:                  8
 Charge:                           0
 Number of electrons:            152
 Number of core electrons:        64
 Spin multiplicity:                1
 
                 Cartesian coordinates [bohr]      Atomic mass [AMU]  Z
   1  Cu   -2.05623700    0.01007842    2.31840364    62.929599      29
   2  Cu    2.91296985    0.71059481   -0.78670818    62.929599      29
   3  Cu    0.40196102   -1.03968650   -4.04581635    62.929599      29
   4  Cu    0.87662195    3.47141988    2.19005523    62.929599      29
   5  Cu   -1.29998894    2.35095202   -1.55198161    62.929599      29
   6  Cu    2.26438960   -0.83390672    3.43453660    62.929599      29
   7  Cu    0.44507982   -3.07038972    0.01792039    62.929599      29
   8  Cu   -3.54479630   -1.59906221   -1.57640970    62.929599      29
 
 This molecule is an asymmetric top.
 
 Point group: C1  
 Computational point group: C1  
 
 Cartesian coordinates in standard orientation [bohr]
   1  Cu    0.94919506   -0.15141239    2.94606697
   2  Cu    0.94802575    0.15329140   -2.94737121
   3  Cu   -3.48148247    0.12218887   -2.33997870
   4  Cu    3.48037823    2.34254468    0.12253910
   5  Cu   -0.94980133    2.94965560    0.15166680
   6  Cu    3.48083306   -2.34258919   -0.12239049
   7  Cu   -0.94803992   -2.95016159   -0.15322252
   8  Cu   -3.47910839   -0.12351738    2.34269004
 
 Nuclear repulsion energy [au]:       1946.387703836435
 
 
 Basis set information:
 
 Maximum angular momentum: i
 Maximum number of contracted Gaussians:   16
 Maximum number of primitive Gaussians:    19
 Spherical harmonic GTOs are used.
 
 
 Conventional basis set:
 
   1  Cu def2-svp [ 14s 9p 5d 1f | 5s 3p 2d 1f ]
   2  Cu def2-svp [ 14s 9p 5d 1f | 5s 3p 2d 1f ]
   3  Cu def2-svp [ 14s 9p 5d 1f | 5s 3p 2d 1f ]
   4  Cu def2-svp [ 14s 9p 5d 1f | 5s 3p 2d 1f ]
   5  Cu def2-svp [ 14s 9p 5d 1f | 5s 3p 2d 1f ]
   6  Cu def2-svp [ 14s 9p 5d 1f | 5s 3p 2d 1f ]
   7  Cu def2-svp [ 14s 9p 5d 1f | 5s 3p 2d 1f ]
   8  Cu def2-svp [ 14s 9p 5d 1f | 5s 3p 2d 1f ]
 
 Basis functions:
            1             2             3             4             5             6             7             8             9            10
    0    1Cu1s         1Cu2s         1Cu3s         1Cu4s         1Cu5s         1Cu1pz        1Cu1py        1Cu1px        1Cu2pz        1Cu2py    
    1    1Cu2px        1Cu3pz        1Cu3py        1Cu3px        1Cu1d-2       1Cu1d-1       1Cu1d0        1Cu1d+1       1Cu1d+2       1Cu2d-2   
    2    1Cu2d-1       1Cu2d0        1Cu2d+1       1Cu2d+2       1Cu1f-3       1Cu1f-2       1Cu1f-1       1Cu1f0        1Cu1f+1       1Cu1f+2   
    3    1Cu1f+3       2Cu1s         2Cu2s         2Cu3s         2Cu4s         2Cu5s         2Cu1pz        2Cu1py        2Cu1px        2Cu2pz    
    4    2Cu2py        2Cu2px        2Cu3pz        2Cu3py        2Cu3px        2Cu1d-2       2Cu1d-1       2Cu1d0        2Cu1d+1       2Cu1d+2   
    5    2Cu2d-2       2Cu2d-1       2Cu2d0        2Cu2d+1       2Cu2d+2       2Cu1f-3       2Cu1f-2       2Cu1f-1       2Cu1f0        2Cu1f+1   
    6    2Cu1f+2       2Cu1f+3       3Cu1s         3Cu2s         3Cu3s         3Cu4s         3Cu5s         3Cu1pz        3Cu1py        3Cu1px    
    7    3Cu2pz        3Cu2py        3Cu2px        3Cu3pz        3Cu3py        3Cu3px        3Cu1d-2       3Cu1d-1       3Cu1d0        3Cu1d+1   
    8    3Cu1d+2       3Cu2d-2       3Cu2d-1       3Cu2d0        3Cu2d+1       3Cu2d+2       3Cu1f-3       3Cu1f-2       3Cu1f-1       3Cu1f0    
    9    3Cu1f+1       3Cu1f+2       3Cu1f+3       4Cu1s         4Cu2s         4Cu3s         4Cu4s         4Cu5s         4Cu1pz        4Cu1py    
   10    4Cu1px        4Cu2pz        4Cu2py        4Cu2px        4Cu3pz        4Cu3py        4Cu3px        4Cu1d-2       4Cu1d-1       4Cu1d0    
   11    4Cu1d+1       4Cu1d+2       4Cu2d-2       4Cu2d-1       4Cu2d0        4Cu2d+1       4Cu2d+2       4Cu1f-3       4Cu1f-2       4Cu1f-1   
   12    4Cu1f0        4Cu1f+1       4Cu1f+2       4Cu1f+3       5Cu1s         5Cu2s         5Cu3s         5Cu4s         5Cu5s         5Cu1pz    
   13    5Cu1py        5Cu1px        5Cu2pz        5Cu2py        5Cu2px        5Cu3pz        5Cu3py        5Cu3px        5Cu1d-2       5Cu1d-1   
   14    5Cu1d0        5Cu1d+1       5Cu1d+2       5Cu2d-2       5Cu2d-1       5Cu2d0        5Cu2d+1       5Cu2d+2       5Cu1f-3       5Cu1f-2   
   15    5Cu1f-1       5Cu1f0        5Cu1f+1       5Cu1f+2       5Cu1f+3       6Cu1s         6Cu2s         6Cu3s         6Cu4s         6Cu5s     
   16    6Cu1pz        6Cu1py        6Cu1px        6Cu2pz        6Cu2py        6Cu2px        6Cu3pz        6Cu3py        6Cu3px        6Cu1d-2   
   17    6Cu1d-1       6Cu1d0        6Cu1d+1       6Cu1d+2       6Cu2d-2       6Cu2d-1       6Cu2d0        6Cu2d+1       6Cu2d+2       6Cu1f-3   
   18    6Cu1f-2       6Cu1f-1       6Cu1f0        6Cu1f+1       6Cu1f+2       6Cu1f+3       7Cu1s         7Cu2s         7Cu3s         7Cu4s     
   19    7Cu5s         7Cu1pz        7Cu1py        7Cu1px        7Cu2pz        7Cu2py        7Cu2px        7Cu3pz        7Cu3py        7Cu3px    
   20    7Cu1d-2       7Cu1d-1       7Cu1d0        7Cu1d+1       7Cu1d+2       7Cu2d-2       7Cu2d-1       7Cu2d0        7Cu2d+1       7Cu2d+2   
   21    7Cu1f-3       7Cu1f-2       7Cu1f-1       7Cu1f0        7Cu1f+1       7Cu1f+2       7Cu1f+3       8Cu1s         8Cu2s         8Cu3s     
   22    8Cu4s         8Cu5s         8Cu1pz        8Cu1py        8Cu1px        8Cu2pz        8Cu2py        8Cu2px        8Cu3pz        8Cu3py    
   23    8Cu3px        8Cu1d-2       8Cu1d-1       8Cu1d0        8Cu1d+1       8Cu1d+2       8Cu2d-2       8Cu2d-1       8Cu2d0        8Cu2d+1   
   24    8Cu2d+2       8Cu1f-3       8Cu1f-2       8Cu1f-1       8Cu1f0        8Cu1f+1       8Cu1f+2       8Cu1f+3   
 
 Maximum number of basis functions per shell:   10
 Total number of basis functions:    248
 
 
 Fitting basis set for the SCF calculation:
 
   1  Cu def2-qzvpp-ri-jk [ 19s 14p 12d 10f 7g 3h 1i | 16s 13p 11d 9f 5g 3h 1i ]
   2  Cu def2-qzvpp-ri-jk [ 19s 14p 12d 10f 7g 3h 1i | 16s 13p 11d 9f 5g 3h 1i ]
   3  Cu def2-qzvpp-ri-jk [ 19s 14p 12d 10f 7g 3h 1i | 16s 13p 11d 9f 5g 3h 1i ]
   4  Cu def2-qzvpp-ri-jk [ 19s 14p 12d 10f 7g 3h 1i | 16s 13p 11d 9f 5g 3h 1i ]
   5  Cu def2-qzvpp-ri-jk [ 19s 14p 12d 10f 7g 3h 1i | 16s 13p 11d 9f 5g 3h 1i ]
   6  Cu def2-qzvpp-ri-jk [ 19s 14p 12d 10f 7g 3h 1i | 16s 13p 11d 9f 5g 3h 1i ]
   7  Cu def2-qzvpp-ri-jk [ 19s 14p 12d 10f 7g 3h 1i | 16s 13p 11d 9f 5g 3h 1i ]
   8  Cu def2-qzvpp-ri-jk [ 19s 14p 12d 10f 7g 3h 1i | 16s 13p 11d 9f 5g 3h 1i ]
 
 Basis functions:
            1             2             3             4             5             6             7             8             9            10
    0    1Cu1s         1Cu2s         1Cu3s         1Cu4s         1Cu5s         1Cu6s         1Cu7s         1Cu8s         1Cu9s         1Cu10s    
    1    1Cu11s        1Cu12s        1Cu13s        1Cu14s        1Cu15s        1Cu16s        1Cu1pz        1Cu1py        1Cu1px        1Cu2pz    
    2    1Cu2py        1Cu2px        1Cu3pz        1Cu3py        1Cu3px        1Cu4pz        1Cu4py        1Cu4px        1Cu5pz        1Cu5py    
    3    1Cu5px        1Cu6pz        1Cu6py        1Cu6px        1Cu7pz        1Cu7py        1Cu7px        1Cu8pz        1Cu8py        1Cu8px    
    4    1Cu9pz        1Cu9py        1Cu9px        1Cu10pz       1Cu10py       1Cu10px       1Cu11pz       1Cu11py       1Cu11px       1Cu12pz   
    5    1Cu12py       1Cu12px       1Cu13pz       1Cu13py       1Cu13px       1Cu1d-2       1Cu1d-1       1Cu1d0        1Cu1d+1       1Cu1d+2   
    6    1Cu2d-2       1Cu2d-1       1Cu2d0        1Cu2d+1       1Cu2d+2       1Cu3d-2       1Cu3d-1       1Cu3d0        1Cu3d+1       1Cu3d+2   
    7    1Cu4d-2       1Cu4d-1       1Cu4d0        1Cu4d+1       1Cu4d+2       1Cu5d-2       1Cu5d-1       1Cu5d0        1Cu5d+1       1Cu5d+2   
    8    1Cu6d-2       1Cu6d-1       1Cu6d0        1Cu6d+1       1Cu6d+2       1Cu7d-2       1Cu7d-1       1Cu7d0        1Cu7d+1       1Cu7d+2   
    9    1Cu8d-2       1Cu8d-1       1Cu8d0        1Cu8d+1       1Cu8d+2       1Cu9d-2       1Cu9d-1       1Cu9d0        1Cu9d+1       1Cu9d+2   
   10    1Cu10d-2      1Cu10d-1      1Cu10d0       1Cu10d+1      1Cu10d+2      1Cu11d-2      1Cu11d-1      1Cu11d0       1Cu11d+1      1Cu11d+2  
   11    1Cu1f-3       1Cu1f-2       1Cu1f-1       1Cu1f0        1Cu1f+1       1Cu1f+2       1Cu1f+3       1Cu2f-3       1Cu2f-2       1Cu2f-1   
   12    1Cu2f0        1Cu2f+1       1Cu2f+2       1Cu2f+3       1Cu3f-3       1Cu3f-2       1Cu3f-1       1Cu3f0        1Cu3f+1       1Cu3f+2   
   13    1Cu3f+3       1Cu4f-3       1Cu4f-2       1Cu4f-1       1Cu4f0        1Cu4f+1       1Cu4f+2       1Cu4f+3       1Cu5f-3       1Cu5f-2   
   14    1Cu5f-1       1Cu5f0        1Cu5f+1       1Cu5f+2       1Cu5f+3       1Cu6f-3       1Cu6f-2       1Cu6f-1       1Cu6f0        1Cu6f+1   
   15    1Cu6f+2       1Cu6f+3       1Cu7f-3       1Cu7f-2       1Cu7f-1       1Cu7f0        1Cu7f+1       1Cu7f+2       1Cu7f+3       1Cu8f-3   
   16    1Cu8f-2       1Cu8f-1       1Cu8f0        1Cu8f+1       1Cu8f+2       1Cu8f+3       1Cu9f-3       1Cu9f-2       1Cu9f-1       1Cu9f0    
   17    1Cu9f+1       1Cu9f+2       1Cu9f+3       1Cu1g-4       1Cu1g-3       1Cu1g-2       1Cu1g-1       1Cu1g0        1Cu1g+1       1Cu1g+2   
   18    1Cu1g+3       1Cu1g+4       1Cu2g-4       1Cu2g-3       1Cu2g-2       1Cu2g-1       1Cu2g0        1Cu2g+1       1Cu2g+2       1Cu2g+3   
   19    1Cu2g+4       1Cu3g-4       1Cu3g-3       1Cu3g-2       1Cu3g-1       1Cu3g0        1Cu3g+1       1Cu3g+2       1Cu3g+3       1Cu3g+4   
   20    1Cu4g-4       1Cu4g-3       1Cu4g-2       1Cu4g-1       1Cu4g0        1Cu4g+1       1Cu4g+2       1Cu4g+3       1Cu4g+4       1Cu5g-4   
   21    1Cu5g-3       1Cu5g-2       1Cu5g-1       1Cu5g0        1Cu5g+1       1Cu5g+2       1Cu5g+3       1Cu5g+4       1Cu1h-5       1Cu1h-4   
   22    1Cu1h-3       1Cu1h-2       1Cu1h-1       1Cu1h0        1Cu1h+1       1Cu1h+2       1Cu1h+3       1Cu1h+4       1Cu1h+5       1Cu2h-5   
   23    1Cu2h-4       1Cu2h-3       1Cu2h-2       1Cu2h-1       1Cu2h0        1Cu2h+1       1Cu2h+2       1Cu2h+3       1Cu2h+4       1Cu2h+5   
   24    1Cu3h-5       1Cu3h-4       1Cu3h-3       1Cu3h-2       1Cu3h-1       1Cu3h0        1Cu3h+1       1Cu3h+2       1Cu3h+3       1Cu3h+4   
   25    1Cu3h+5       1Cu1i-6       1Cu1i-5       1Cu1i-4       1Cu1i-3       1Cu1i-2       1Cu1i-1       1Cu1i0        1Cu1i+1       1Cu1i+2   
   26    1Cu1i+3       1Cu1i+4       1Cu1i+5       1Cu1i+6       2Cu1s         2Cu2s         2Cu3s         2Cu4s         2Cu5s         2Cu6s     
   27    2Cu7s         2Cu8s         2Cu9s         2Cu10s        2Cu11s        2Cu12s        2Cu13s        2Cu14s        2Cu15s        2Cu16s    
   28    2Cu1pz        2Cu1py        2Cu1px        2Cu2pz        2Cu2py        2Cu2px        2Cu3pz        2Cu3py        2Cu3px        2Cu4pz    
   29    2Cu4py        2Cu4px        2Cu5pz        2Cu5py        2Cu5px        2Cu6pz        2Cu6py        2Cu6px        2Cu7pz        2Cu7py    
   30    2Cu7px        2Cu8pz        2Cu8py        2Cu8px        2Cu9pz        2Cu9py        2Cu9px        2Cu10pz       2Cu10py       2Cu10px   
   31    2Cu11pz       2Cu11py       2Cu11px       2Cu12pz       2Cu12py       2Cu12px       2Cu13pz       2Cu13py       2Cu13px       2Cu1d-2   
   32    2Cu1d-1       2Cu1d0        2Cu1d+1       2Cu1d+2       2Cu2d-2       2Cu2d-1       2Cu2d0        2Cu2d+1       2Cu2d+2       2Cu3d-2   
   33    2Cu3d-1       2Cu3d0        2Cu3d+1       2Cu3d+2       2Cu4d-2       2Cu4d-1       2Cu4d0        2Cu4d+1       2Cu4d+2       2Cu5d-2   
   34    2Cu5d-1       2Cu5d0        2Cu5d+1       2Cu5d+2       2Cu6d-2       2Cu6d-1       2Cu6d0        2Cu6d+1       2Cu6d+2       2Cu7d-2   
   35    2Cu7d-1       2Cu7d0        2Cu7d+1       2Cu7d+2       2Cu8d-2       2Cu8d-1       2Cu8d0        2Cu8d+1       2Cu8d+2       2Cu9d-2   
   36    2Cu9d-1       2Cu9d0        2Cu9d+1       2Cu9d+2       2Cu10d-2      2Cu10d-1      2Cu10d0       2Cu10d+1      2Cu10d+2      2Cu11d-2  
   37    2Cu11d-1      2Cu11d0       2Cu11d+1      2Cu11d+2      2Cu1f-3       2Cu1f-2       2Cu1f-1       2Cu1f0        2Cu1f+1       2Cu1f+2   
   38    2Cu1f+3       2Cu2f-3       2Cu2f-2       2Cu2f-1       2Cu2f0        2Cu2f+1       2Cu2f+2       2Cu2f+3       2Cu3f-3       2Cu3f-2   
   39    2Cu3f-1       2Cu3f0        2Cu3f+1       2Cu3f+2       2Cu3f+3       2Cu4f-3       2Cu4f-2       2Cu4f-1       2Cu4f0        2Cu4f+1   
   40    2Cu4f+2       2Cu4f+3       2Cu5f-3       2Cu5f-2       2Cu5f-1       2Cu5f0        2Cu5f+1       2Cu5f+2       2Cu5f+3       2Cu6f-3   
   41    2Cu6f-2       2Cu6f-1       2Cu6f0        2Cu6f+1       2Cu6f+2       2Cu6f+3       2Cu7f-3       2Cu7f-2       2Cu7f-1       2Cu7f0    
   42    2Cu7f+1       2Cu7f+2       2Cu7f+3       2Cu8f-3       2Cu8f-2       2Cu8f-1       2Cu8f0        2Cu8f+1       2Cu8f+2       2Cu8f+3   
   43    2Cu9f-3       2Cu9f-2       2Cu9f-1       2Cu9f0        2Cu9f+1       2Cu9f+2       2Cu9f+3       2Cu1g-4       2Cu1g-3       2Cu1g-2   
   44    2Cu1g-1       2Cu1g0        2Cu1g+1       2Cu1g+2       2Cu1g+3       2Cu1g+4       2Cu2g-4       2Cu2g-3       2Cu2g-2       2Cu2g-1   
   45    2Cu2g0        2Cu2g+1       2Cu2g+2       2Cu2g+3       2Cu2g+4       2Cu3g-4       2Cu3g-3       2Cu3g-2       2Cu3g-1       2Cu3g0    
   46    2Cu3g+1       2Cu3g+2       2Cu3g+3       2Cu3g+4       2Cu4g-4       2Cu4g-3       2Cu4g-2       2Cu4g-1       2Cu4g0        2Cu4g+1   
   47    2Cu4g+2       2Cu4g+3       2Cu4g+4       2Cu5g-4       2Cu5g-3       2Cu5g-2       2Cu5g-1       2Cu5g0        2Cu5g+1       2Cu5g+2   
   48    2Cu5g+3       2Cu5g+4       2Cu1h-5       2Cu1h-4       2Cu1h-3       2Cu1h-2       2Cu1h-1       2Cu1h0        2Cu1h+1       2Cu1h+2   
   49    2Cu1h+3       2Cu1h+4       2Cu1h+5       2Cu2h-5       2Cu2h-4       2Cu2h-3       2Cu2h-2       2Cu2h-1       2Cu2h0        2Cu2h+1   
   50    2Cu2h+2       2Cu2h+3       2Cu2h+4       2Cu2h+5       2Cu3h-5       2Cu3h-4       2Cu3h-3       2Cu3h-2       2Cu3h-1       2Cu3h0    
   51    2Cu3h+1       2Cu3h+2       2Cu3h+3       2Cu3h+4       2Cu3h+5       2Cu1i-6       2Cu1i-5       2Cu1i-4       2Cu1i-3       2Cu1i-2   
   52    2Cu1i-1       2Cu1i0        2Cu1i+1       2Cu1i+2       2Cu1i+3       2Cu1i+4       2Cu1i+5       2Cu1i+6       3Cu1s         3Cu2s     
   53    3Cu3s         3Cu4s         3Cu5s         3Cu6s         3Cu7s         3Cu8s         3Cu9s         3Cu10s        3Cu11s        3Cu12s    
   54    3Cu13s        3Cu14s        3Cu15s        3Cu16s        3Cu1pz        3Cu1py        3Cu1px        3Cu2pz        3Cu2py        3Cu2px    
   55    3Cu3pz        3Cu3py        3Cu3px        3Cu4pz        3Cu4py        3Cu4px        3Cu5pz        3Cu5py        3Cu5px        3Cu6pz    
   56    3Cu6py        3Cu6px        3Cu7pz        3Cu7py        3Cu7px        3Cu8pz        3Cu8py        3Cu8px        3Cu9pz        3Cu9py    
   57    3Cu9px        3Cu10pz       3Cu10py       3Cu10px       3Cu11pz       3Cu11py       3Cu11px       3Cu12pz       3Cu12py       3Cu12px   
   58    3Cu13pz       3Cu13py       3Cu13px       3Cu1d-2       3Cu1d-1       3Cu1d0        3Cu1d+1       3Cu1d+2       3Cu2d-2       3Cu2d-1   
   59    3Cu2d0        3Cu2d+1       3Cu2d+2       3Cu3d-2       3Cu3d-1       3Cu3d0        3Cu3d+1       3Cu3d+2       3Cu4d-2       3Cu4d-1   
   60    3Cu4d0        3Cu4d+1       3Cu4d+2       3Cu5d-2       3Cu5d-1       3Cu5d0        3Cu5d+1       3Cu5d+2       3Cu6d-2       3Cu6d-1   
   61    3Cu6d0        3Cu6d+1       3Cu6d+2       3Cu7d-2       3Cu7d-1       3Cu7d0        3Cu7d+1       3Cu7d+2       3Cu8d-2       3Cu8d-1   
   62    3Cu8d0        3Cu8d+1       3Cu8d+2       3Cu9d-2       3Cu9d-1       3Cu9d0        3Cu9d+1       3Cu9d+2       3Cu10d-2      3Cu10d-1  
   63    3Cu10d0       3Cu10d+1      3Cu10d+2      3Cu11d-2      3Cu11d-1      3Cu11d0       3Cu11d+1      3Cu11d+2      3Cu1f-3       3Cu1f-2   
   64    3Cu1f-1       3Cu1f0        3Cu1f+1       3Cu1f+2       3Cu1f+3       3Cu2f-3       3Cu2f-2       3Cu2f-1       3Cu2f0        3Cu2f+1   
   65    3Cu2f+2       3Cu2f+3       3Cu3f-3       3Cu3f-2       3Cu3f-1       3Cu3f0        3Cu3f+1       3Cu3f+2       3Cu3f+3       3Cu4f-3   
   66    3Cu4f-2       3Cu4f-1       3Cu4f0        3Cu4f+1       3Cu4f+2       3Cu4f+3       3Cu5f-3       3Cu5f-2       3Cu5f-1       3Cu5f0    
   67    3Cu5f+1       3Cu5f+2       3Cu5f+3       3Cu6f-3       3Cu6f-2       3Cu6f-1       3Cu6f0        3Cu6f+1       3Cu6f+2       3Cu6f+3   
   68    3Cu7f-3       3Cu7f-2       3Cu7f-1       3Cu7f0        3Cu7f+1       3Cu7f+2       3Cu7f+3       3Cu8f-3       3Cu8f-2       3Cu8f-1   
   69    3Cu8f0        3Cu8f+1       3Cu8f+2       3Cu8f+3       3Cu9f-3       3Cu9f-2       3Cu9f-1       3Cu9f0        3Cu9f+1       3Cu9f+2   
   70    3Cu9f+3       3Cu1g-4       3Cu1g-3       3Cu1g-2       3Cu1g-1       3Cu1g0        3Cu1g+1       3Cu1g+2       3Cu1g+3       3Cu1g+4   
   71    3Cu2g-4       3Cu2g-3       3Cu2g-2       3Cu2g-1       3Cu2g0        3Cu2g+1       3Cu2g+2       3Cu2g+3       3Cu2g+4       3Cu3g-4   
   72    3Cu3g-3       3Cu3g-2       3Cu3g-1       3Cu3g0        3Cu3g+1       3Cu3g+2       3Cu3g+3       3Cu3g+4       3Cu4g-4       3Cu4g-3   
   73    3Cu4g-2       3Cu4g-1       3Cu4g0        3Cu4g+1       3Cu4g+2       3Cu4g+3       3Cu4g+4       3Cu5g-4       3Cu5g-3       3Cu5g-2   
   74    3Cu5g-1       3Cu5g0        3Cu5g+1       3Cu5g+2       3Cu5g+3       3Cu5g+4       3Cu1h-5       3Cu1h-4       3Cu1h-3       3Cu1h-2   
   75    3Cu1h-1       3Cu1h0        3Cu1h+1       3Cu1h+2       3Cu1h+3       3Cu1h+4       3Cu1h+5       3Cu2h-5       3Cu2h-4       3Cu2h-3   
   76    3Cu2h-2       3Cu2h-1       3Cu2h0        3Cu2h+1       3Cu2h+2       3Cu2h+3       3Cu2h+4       3Cu2h+5       3Cu3h-5       3Cu3h-4   
   77    3Cu3h-3       3Cu3h-2       3Cu3h-1       3Cu3h0        3Cu3h+1       3Cu3h+2       3Cu3h+3       3Cu3h+4       3Cu3h+5       3Cu1i-6   
   78    3Cu1i-5       3Cu1i-4       3Cu1i-3       3Cu1i-2       3Cu1i-1       3Cu1i0        3Cu1i+1       3Cu1i+2       3Cu1i+3       3Cu1i+4   
   79    3Cu1i+5       3Cu1i+6       4Cu1s         4Cu2s         4Cu3s         4Cu4s         4Cu5s         4Cu6s         4Cu7s         4Cu8s     
   80    4Cu9s         4Cu10s        4Cu11s        4Cu12s        4Cu13s        4Cu14s        4Cu15s        4Cu16s        4Cu1pz        4Cu1py    
   81    4Cu1px        4Cu2pz        4Cu2py        4Cu2px        4Cu3pz        4Cu3py        4Cu3px        4Cu4pz        4Cu4py        4Cu4px    
   82    4Cu5pz        4Cu5py        4Cu5px        4Cu6pz        4Cu6py        4Cu6px        4Cu7pz        4Cu7py        4Cu7px        4Cu8pz    
   83    4Cu8py        4Cu8px        4Cu9pz        4Cu9py        4Cu9px        4Cu10pz       4Cu10py       4Cu10px       4Cu11pz       4Cu11py   
   84    4Cu11px       4Cu12pz       4Cu12py       4Cu12px       4Cu13pz       4Cu13py       4Cu13px       4Cu1d-2       4Cu1d-1       4Cu1d0    
   85    4Cu1d+1       4Cu1d+2       4Cu2d-2       4Cu2d-1       4Cu2d0        4Cu2d+1       4Cu2d+2       4Cu3d-2       4Cu3d-1       4Cu3d0    
   86    4Cu3d+1       4Cu3d+2       4Cu4d-2       4Cu4d-1       4Cu4d0        4Cu4d+1       4Cu4d+2       4Cu5d-2       4Cu5d-1       4Cu5d0    
   87    4Cu5d+1       4Cu5d+2       4Cu6d-2       4Cu6d-1       4Cu6d0        4Cu6d+1       4Cu6d+2       4Cu7d-2       4Cu7d-1       4Cu7d0    
   88    4Cu7d+1       4Cu7d+2       4Cu8d-2       4Cu8d-1       4Cu8d0        4Cu8d+1       4Cu8d+2       4Cu9d-2       4Cu9d-1       4Cu9d0    
   89    4Cu9d+1       4Cu9d+2       4Cu10d-2      4Cu10d-1      4Cu10d0       4Cu10d+1      4Cu10d+2      4Cu11d-2      4Cu11d-1      4Cu11d0   
   90    4Cu11d+1      4Cu11d+2      4Cu1f-3       4Cu1f-2       4Cu1f-1       4Cu1f0        4Cu1f+1       4Cu1f+2       4Cu1f+3       4Cu2f-3   
   91    4Cu2f-2       4Cu2f-1       4Cu2f0        4Cu2f+1       4Cu2f+2       4Cu2f+3       4Cu3f-3       4Cu3f-2       4Cu3f-1       4Cu3f0    
   92    4Cu3f+1       4Cu3f+2       4Cu3f+3       4Cu4f-3       4Cu4f-2       4Cu4f-1       4Cu4f0        4Cu4f+1       4Cu4f+2       4Cu4f+3   
   93    4Cu5f-3       4Cu5f-2       4Cu5f-1       4Cu5f0        4Cu5f+1       4Cu5f+2       4Cu5f+3       4Cu6f-3       4Cu6f-2       4Cu6f-1   
   94    4Cu6f0        4Cu6f+1       4Cu6f+2       4Cu6f+3       4Cu7f-3       4Cu7f-2       4Cu7f-1       4Cu7f0        4Cu7f+1       4Cu7f+2   
   95    4Cu7f+3       4Cu8f-3       4Cu8f-2       4Cu8f-1       4Cu8f0        4Cu8f+1       4Cu8f+2       4Cu8f+3       4Cu9f-3       4Cu9f-2   
   96    4Cu9f-1       4Cu9f0        4Cu9f+1       4Cu9f+2       4Cu9f+3       4Cu1g-4       4Cu1g-3       4Cu1g-2       4Cu1g-1       4Cu1g0    
   97    4Cu1g+1       4Cu1g+2       4Cu1g+3       4Cu1g+4       4Cu2g-4       4Cu2g-3       4Cu2g-2       4Cu2g-1       4Cu2g0        4Cu2g+1   
   98    4Cu2g+2       4Cu2g+3       4Cu2g+4       4Cu3g-4       4Cu3g-3       4Cu3g-2       4Cu3g-1       4Cu3g0        4Cu3g+1       4Cu3g+2   
   99    4Cu3g+3       4Cu3g+4       4Cu4g-4       4Cu4g-3       4Cu4g-2       4Cu4g-1       4Cu4g0        4Cu4g+1       4Cu4g+2       4Cu4g+3   
  100    4Cu4g+4       4Cu5g-4       4Cu5g-3       4Cu5g-2       4Cu5g-1       4Cu5g0        4Cu5g+1       4Cu5g+2       4Cu5g+3       4Cu5g+4   
  101    4Cu1h-5       4Cu1h-4       4Cu1h-3       4Cu1h-2       4Cu1h-1       4Cu1h0        4Cu1h+1       4Cu1h+2       4Cu1h+3       4Cu1h+4   
  102    4Cu1h+5       4Cu2h-5       4Cu2h-4       4Cu2h-3       4Cu2h-2       4Cu2h-1       4Cu2h0        4Cu2h+1       4Cu2h+2       4Cu2h+3   
  103    4Cu2h+4       4Cu2h+5       4Cu3h-5       4Cu3h-4       4Cu3h-3       4Cu3h-2       4Cu3h-1       4Cu3h0        4Cu3h+1       4Cu3h+2   
  104    4Cu3h+3       4Cu3h+4       4Cu3h+5       4Cu1i-6       4Cu1i-5       4Cu1i-4       4Cu1i-3       4Cu1i-2       4Cu1i-1       4Cu1i0    
  105    4Cu1i+1       4Cu1i+2       4Cu1i+3       4Cu1i+4       4Cu1i+5       4Cu1i+6       5Cu1s         5Cu2s         5Cu3s         5Cu4s     
  106    5Cu5s         5Cu6s         5Cu7s         5Cu8s         5Cu9s         5Cu10s        5Cu11s        5Cu12s        5Cu13s        5Cu14s    
  107    5Cu15s        5Cu16s        5Cu1pz        5Cu1py        5Cu1px        5Cu2pz        5Cu2py        5Cu2px        5Cu3pz        5Cu3py    
  108    5Cu3px        5Cu4pz        5Cu4py        5Cu4px        5Cu5pz        5Cu5py        5Cu5px        5Cu6pz        5Cu6py        5Cu6px    
  109    5Cu7pz        5Cu7py        5Cu7px        5Cu8pz        5Cu8py        5Cu8px        5Cu9pz        5Cu9py        5Cu9px        5Cu10pz   
  110    5Cu10py       5Cu10px       5Cu11pz       5Cu11py       5Cu11px       5Cu12pz       5Cu12py       5Cu12px       5Cu13pz       5Cu13py   
  111    5Cu13px       5Cu1d-2       5Cu1d-1       5Cu1d0        5Cu1d+1       5Cu1d+2       5Cu2d-2       5Cu2d-1       5Cu2d0        5Cu2d+1   
  112    5Cu2d+2       5Cu3d-2       5Cu3d-1       5Cu3d0        5Cu3d+1       5Cu3d+2       5Cu4d-2       5Cu4d-1       5Cu4d0        5Cu4d+1   
  113    5Cu4d+2       5Cu5d-2       5Cu5d-1       5Cu5d0        5Cu5d+1       5Cu5d+2       5Cu6d-2       5Cu6d-1       5Cu6d0        5Cu6d+1   
  114    5Cu6d+2       5Cu7d-2       5Cu7d-1       5Cu7d0        5Cu7d+1       5Cu7d+2       5Cu8d-2       5Cu8d-1       5Cu8d0        5Cu8d+1   
  115    5Cu8d+2       5Cu9d-2       5Cu9d-1       5Cu9d0        5Cu9d+1       5Cu9d+2       5Cu10d-2      5Cu10d-1      5Cu10d0       5Cu10d+1  
  116    5Cu10d+2      5Cu11d-2      5Cu11d-1      5Cu11d0       5Cu11d+1      5Cu11d+2      5Cu1f-3       5Cu1f-2       5Cu1f-1       5Cu1f0    
  117    5Cu1f+1       5Cu1f+2       5Cu1f+3       5Cu2f-3       5Cu2f-2       5Cu2f-1       5Cu2f0        5Cu2f+1       5Cu2f+2       5Cu2f+3   
  118    5Cu3f-3       5Cu3f-2       5Cu3f-1       5Cu3f0        5Cu3f+1       5Cu3f+2       5Cu3f+3       5Cu4f-3       5Cu4f-2       5Cu4f-1   
  119    5Cu4f0        5Cu4f+1       5Cu4f+2       5Cu4f+3       5Cu5f-3       5Cu5f-2       5Cu5f-1       5Cu5f0        5Cu5f+1       5Cu5f+2   
  120    5Cu5f+3       5Cu6f-3       5Cu6f-2       5Cu6f-1       5Cu6f0        5Cu6f+1       5Cu6f+2       5Cu6f+3       5Cu7f-3       5Cu7f-2   
  121    5Cu7f-1       5Cu7f0        5Cu7f+1       5Cu7f+2       5Cu7f+3       5Cu8f-3       5Cu8f-2       5Cu8f-1       5Cu8f0        5Cu8f+1   
  122    5Cu8f+2       5Cu8f+3       5Cu9f-3       5Cu9f-2       5Cu9f-1       5Cu9f0        5Cu9f+1       5Cu9f+2       5Cu9f+3       5Cu1g-4   
  123    5Cu1g-3       5Cu1g-2       5Cu1g-1       5Cu1g0        5Cu1g+1       5Cu1g+2       5Cu1g+3       5Cu1g+4       5Cu2g-4       5Cu2g-3   
  124    5Cu2g-2       5Cu2g-1       5Cu2g0        5Cu2g+1       5Cu2g+2       5Cu2g+3       5Cu2g+4       5Cu3g-4       5Cu3g-3       5Cu3g-2   
  125    5Cu3g-1       5Cu3g0        5Cu3g+1       5Cu3g+2       5Cu3g+3       5Cu3g+4       5Cu4g-4       5Cu4g-3       5Cu4g-2       5Cu4g-1   
  126    5Cu4g0        5Cu4g+1       5Cu4g+2       5Cu4g+3       5Cu4g+4       5Cu5g-4       5Cu5g-3       5Cu5g-2       5Cu5g-1       5Cu5g0    
  127    5Cu5g+1       5Cu5g+2       5Cu5g+3       5Cu5g+4       5Cu1h-5       5Cu1h-4       5Cu1h-3       5Cu1h-2       5Cu1h-1       5Cu1h0    
  128    5Cu1h+1       5Cu1h+2       5Cu1h+3       5Cu1h+4       5Cu1h+5       5Cu2h-5       5Cu2h-4       5Cu2h-3       5Cu2h-2       5Cu2h-1   
  129    5Cu2h0        5Cu2h+1       5Cu2h+2       5Cu2h+3       5Cu2h+4       5Cu2h+5       5Cu3h-5       5Cu3h-4       5Cu3h-3       5Cu3h-2   
  130    5Cu3h-1       5Cu3h0        5Cu3h+1       5Cu3h+2       5Cu3h+3       5Cu3h+4       5Cu3h+5       5Cu1i-6       5Cu1i-5       5Cu1i-4   
  131    5Cu1i-3       5Cu1i-2       5Cu1i-1       5Cu1i0        5Cu1i+1       5Cu1i+2       5Cu1i+3       5Cu1i+4       5Cu1i+5       5Cu1i+6   
  132    6Cu1s         6Cu2s         6Cu3s         6Cu4s         6Cu5s         6Cu6s         6Cu7s         6Cu8s         6Cu9s         6Cu10s    
  133    6Cu11s        6Cu12s        6Cu13s        6Cu14s        6Cu15s        6Cu16s        6Cu1pz        6Cu1py        6Cu1px        6Cu2pz    
  134    6Cu2py        6Cu2px        6Cu3pz        6Cu3py        6Cu3px        6Cu4pz        6Cu4py        6Cu4px        6Cu5pz        6Cu5py    
  135    6Cu5px        6Cu6pz        6Cu6py        6Cu6px        6Cu7pz        6Cu7py        6Cu7px        6Cu8pz        6Cu8py        6Cu8px    
  136    6Cu9pz        6Cu9py        6Cu9px        6Cu10pz       6Cu10py       6Cu10px       6Cu11pz       6Cu11py       6Cu11px       6Cu12pz   
  137    6Cu12py       6Cu12px       6Cu13pz       6Cu13py       6Cu13px       6Cu1d-2       6Cu1d-1       6Cu1d0        6Cu1d+1       6Cu1d+2   
  138    6Cu2d-2       6Cu2d-1       6Cu2d0        6Cu2d+1       6Cu2d+2       6Cu3d-2       6Cu3d-1       6Cu3d0        6Cu3d+1       6Cu3d+2   
  139    6Cu4d-2       6Cu4d-1       6Cu4d0        6Cu4d+1       6Cu4d+2       6Cu5d-2       6Cu5d-1       6Cu5d0        6Cu5d+1       6Cu5d+2   
  140    6Cu6d-2       6Cu6d-1       6Cu6d0        6Cu6d+1       6Cu6d+2       6Cu7d-2       6Cu7d-1       6Cu7d0        6Cu7d+1       6Cu7d+2   
  141    6Cu8d-2       6Cu8d-1       6Cu8d0        6Cu8d+1       6Cu8d+2       6Cu9d-2       6Cu9d-1       6Cu9d0        6Cu9d+1       6Cu9d+2   
  142    6Cu10d-2      6Cu10d-1      6Cu10d0       6Cu10d+1      6Cu10d+2      6Cu11d-2      6Cu11d-1      6Cu11d0       6Cu11d+1      6Cu11d+2  
  143    6Cu1f-3       6Cu1f-2       6Cu1f-1       6Cu1f0        6Cu1f+1       6Cu1f+2       6Cu1f+3       6Cu2f-3       6Cu2f-2       6Cu2f-1   
  144    6Cu2f0        6Cu2f+1       6Cu2f+2       6Cu2f+3       6Cu3f-3       6Cu3f-2       6Cu3f-1       6Cu3f0        6Cu3f+1       6Cu3f+2   
  145    6Cu3f+3       6Cu4f-3       6Cu4f-2       6Cu4f-1       6Cu4f0        6Cu4f+1       6Cu4f+2       6Cu4f+3       6Cu5f-3       6Cu5f-2   
  146    6Cu5f-1       6Cu5f0        6Cu5f+1       6Cu5f+2       6Cu5f+3       6Cu6f-3       6Cu6f-2       6Cu6f-1       6Cu6f0        6Cu6f+1   
  147    6Cu6f+2       6Cu6f+3       6Cu7f-3       6Cu7f-2       6Cu7f-1       6Cu7f0        6Cu7f+1       6Cu7f+2       6Cu7f+3       6Cu8f-3   
  148    6Cu8f-2       6Cu8f-1       6Cu8f0        6Cu8f+1       6Cu8f+2       6Cu8f+3       6Cu9f-3       6Cu9f-2       6Cu9f-1       6Cu9f0    
  149    6Cu9f+1       6Cu9f+2       6Cu9f+3       6Cu1g-4       6Cu1g-3       6Cu1g-2       6Cu1g-1       6Cu1g0        6Cu1g+1       6Cu1g+2   
  150    6Cu1g+3       6Cu1g+4       6Cu2g-4       6Cu2g-3       6Cu2g-2       6Cu2g-1       6Cu2g0        6Cu2g+1       6Cu2g+2       6Cu2g+3   
  151    6Cu2g+4       6Cu3g-4       6Cu3g-3       6Cu3g-2       6Cu3g-1       6Cu3g0        6Cu3g+1       6Cu3g+2       6Cu3g+3       6Cu3g+4   
  152    6Cu4g-4       6Cu4g-3       6Cu4g-2       6Cu4g-1       6Cu4g0        6Cu4g+1       6Cu4g+2       6Cu4g+3       6Cu4g+4       6Cu5g-4   
  153    6Cu5g-3       6Cu5g-2       6Cu5g-1       6Cu5g0        6Cu5g+1       6Cu5g+2       6Cu5g+3       6Cu5g+4       6Cu1h-5       6Cu1h-4   
  154    6Cu1h-3       6Cu1h-2       6Cu1h-1       6Cu1h0        6Cu1h+1       6Cu1h+2       6Cu1h+3       6Cu1h+4       6Cu1h+5       6Cu2h-5   
  155    6Cu2h-4       6Cu2h-3       6Cu2h-2       6Cu2h-1       6Cu2h0        6Cu2h+1       6Cu2h+2       6Cu2h+3       6Cu2h+4       6Cu2h+5   
  156    6Cu3h-5       6Cu3h-4       6Cu3h-3       6Cu3h-2       6Cu3h-1       6Cu3h0        6Cu3h+1       6Cu3h+2       6Cu3h+3       6Cu3h+4   
  157    6Cu3h+5       6Cu1i-6       6Cu1i-5       6Cu1i-4       6Cu1i-3       6Cu1i-2       6Cu1i-1       6Cu1i0        6Cu1i+1       6Cu1i+2   
  158    6Cu1i+3       6Cu1i+4       6Cu1i+5       6Cu1i+6       7Cu1s         7Cu2s         7Cu3s         7Cu4s         7Cu5s         7Cu6s     
  159    7Cu7s         7Cu8s         7Cu9s         7Cu10s        7Cu11s        7Cu12s        7Cu13s        7Cu14s        7Cu15s        7Cu16s    
  160    7Cu1pz        7Cu1py        7Cu1px        7Cu2pz        7Cu2py        7Cu2px        7Cu3pz        7Cu3py        7Cu3px        7Cu4pz    
  161    7Cu4py        7Cu4px        7Cu5pz        7Cu5py        7Cu5px        7Cu6pz        7Cu6py        7Cu6px        7Cu7pz        7Cu7py    
  162    7Cu7px        7Cu8pz        7Cu8py        7Cu8px        7Cu9pz        7Cu9py        7Cu9px        7Cu10pz       7Cu10py       7Cu10px   
  163    7Cu11pz       7Cu11py       7Cu11px       7Cu12pz       7Cu12py       7Cu12px       7Cu13pz       7Cu13py       7Cu13px       7Cu1d-2   
  164    7Cu1d-1       7Cu1d0        7Cu1d+1       7Cu1d+2       7Cu2d-2       7Cu2d-1       7Cu2d0        7Cu2d+1       7Cu2d+2       7Cu3d-2   
  165    7Cu3d-1       7Cu3d0        7Cu3d+1       7Cu3d+2       7Cu4d-2       7Cu4d-1       7Cu4d0        7Cu4d+1       7Cu4d+2       7Cu5d-2   
  166    7Cu5d-1       7Cu5d0        7Cu5d+1       7Cu5d+2       7Cu6d-2       7Cu6d-1       7Cu6d0        7Cu6d+1       7Cu6d+2       7Cu7d-2   
  167    7Cu7d-1       7Cu7d0        7Cu7d+1       7Cu7d+2       7Cu8d-2       7Cu8d-1       7Cu8d0        7Cu8d+1       7Cu8d+2       7Cu9d-2   
  168    7Cu9d-1       7Cu9d0        7Cu9d+1       7Cu9d+2       7Cu10d-2      7Cu10d-1      7Cu10d0       7Cu10d+1      7Cu10d+2      7Cu11d-2  
  169    7Cu11d-1      7Cu11d0       7Cu11d+1      7Cu11d+2      7Cu1f-3       7Cu1f-2       7Cu1f-1       7Cu1f0        7Cu1f+1       7Cu1f+2   
  170    7Cu1f+3       7Cu2f-3       7Cu2f-2       7Cu2f-1       7Cu2f0        7Cu2f+1       7Cu2f+2       7Cu2f+3       7Cu3f-3       7Cu3f-2   
  171    7Cu3f-1       7Cu3f0        7Cu3f+1       7Cu3f+2       7Cu3f+3       7Cu4f-3       7Cu4f-2       7Cu4f-1       7Cu4f0        7Cu4f+1   
  172    7Cu4f+2       7Cu4f+3       7Cu5f-3       7Cu5f-2       7Cu5f-1       7Cu5f0        7Cu5f+1       7Cu5f+2       7Cu5f+3       7Cu6f-3   
  173    7Cu6f-2       7Cu6f-1       7Cu6f0        7Cu6f+1       7Cu6f+2       7Cu6f+3       7Cu7f-3       7Cu7f-2       7Cu7f-1       7Cu7f0    
  174    7Cu7f+1       7Cu7f+2       7Cu7f+3       7Cu8f-3       7Cu8f-2       7Cu8f-1       7Cu8f0        7Cu8f+1       7Cu8f+2       7Cu8f+3   
  175    7Cu9f-3       7Cu9f-2       7Cu9f-1       7Cu9f0        7Cu9f+1       7Cu9f+2       7Cu9f+3       7Cu1g-4       7Cu1g-3       7Cu1g-2   
  176    7Cu1g-1       7Cu1g0        7Cu1g+1       7Cu1g+2       7Cu1g+3       7Cu1g+4       7Cu2g-4       7Cu2g-3       7Cu2g-2       7Cu2g-1   
  177    7Cu2g0        7Cu2g+1       7Cu2g+2       7Cu2g+3       7Cu2g+4       7Cu3g-4       7Cu3g-3       7Cu3g-2       7Cu3g-1       7Cu3g0    
  178    7Cu3g+1       7Cu3g+2       7Cu3g+3       7Cu3g+4       7Cu4g-4       7Cu4g-3       7Cu4g-2       7Cu4g-1       7Cu4g0        7Cu4g+1   
  179    7Cu4g+2       7Cu4g+3       7Cu4g+4       7Cu5g-4       7Cu5g-3       7Cu5g-2       7Cu5g-1       7Cu5g0        7Cu5g+1       7Cu5g+2   
  180    7Cu5g+3       7Cu5g+4       7Cu1h-5       7Cu1h-4       7Cu1h-3       7Cu1h-2       7Cu1h-1       7Cu1h0        7Cu1h+1       7Cu1h+2   
  181    7Cu1h+3       7Cu1h+4       7Cu1h+5       7Cu2h-5       7Cu2h-4       7Cu2h-3       7Cu2h-2       7Cu2h-1       7Cu2h0        7Cu2h+1   
  182    7Cu2h+2       7Cu2h+3       7Cu2h+4       7Cu2h+5       7Cu3h-5       7Cu3h-4       7Cu3h-3       7Cu3h-2       7Cu3h-1       7Cu3h0    
  183    7Cu3h+1       7Cu3h+2       7Cu3h+3       7Cu3h+4       7Cu3h+5       7Cu1i-6       7Cu1i-5       7Cu1i-4       7Cu1i-3       7Cu1i-2   
  184    7Cu1i-1       7Cu1i0        7Cu1i+1       7Cu1i+2       7Cu1i+3       7Cu1i+4       7Cu1i+5       7Cu1i+6       8Cu1s         8Cu2s     
  185    8Cu3s         8Cu4s         8Cu5s         8Cu6s         8Cu7s         8Cu8s         8Cu9s         8Cu10s        8Cu11s        8Cu12s    
  186    8Cu13s        8Cu14s        8Cu15s        8Cu16s        8Cu1pz        8Cu1py        8Cu1px        8Cu2pz        8Cu2py        8Cu2px    
  187    8Cu3pz        8Cu3py        8Cu3px        8Cu4pz        8Cu4py        8Cu4px        8Cu5pz        8Cu5py        8Cu5px        8Cu6pz    
  188    8Cu6py        8Cu6px        8Cu7pz        8Cu7py        8Cu7px        8Cu8pz        8Cu8py        8Cu8px        8Cu9pz        8Cu9py    
  189    8Cu9px        8Cu10pz       8Cu10py       8Cu10px       8Cu11pz       8Cu11py       8Cu11px       8Cu12pz       8Cu12py       8Cu12px   
  190    8Cu13pz       8Cu13py       8Cu13px       8Cu1d-2       8Cu1d-1       8Cu1d0        8Cu1d+1       8Cu1d+2       8Cu2d-2       8Cu2d-1   
  191    8Cu2d0        8Cu2d+1       8Cu2d+2       8Cu3d-2       8Cu3d-1       8Cu3d0        8Cu3d+1       8Cu3d+2       8Cu4d-2       8Cu4d-1   
  192    8Cu4d0        8Cu4d+1       8Cu4d+2       8Cu5d-2       8Cu5d-1       8Cu5d0        8Cu5d+1       8Cu5d+2       8Cu6d-2       8Cu6d-1   
  193    8Cu6d0        8Cu6d+1       8Cu6d+2       8Cu7d-2       8Cu7d-1       8Cu7d0        8Cu7d+1       8Cu7d+2       8Cu8d-2       8Cu8d-1   
  194    8Cu8d0        8Cu8d+1       8Cu8d+2       8Cu9d-2       8Cu9d-1       8Cu9d0        8Cu9d+1       8Cu9d+2       8Cu10d-2      8Cu10d-1  
  195    8Cu10d0       8Cu10d+1      8Cu10d+2      8Cu11d-2      8Cu11d-1      8Cu11d0       8Cu11d+1      8Cu11d+2      8Cu1f-3       8Cu1f-2   
  196    8Cu1f-1       8Cu1f0        8Cu1f+1       8Cu1f+2       8Cu1f+3       8Cu2f-3       8Cu2f-2       8Cu2f-1       8Cu2f0        8Cu2f+1   
  197    8Cu2f+2       8Cu2f+3       8Cu3f-3       8Cu3f-2       8Cu3f-1       8Cu3f0        8Cu3f+1       8Cu3f+2       8Cu3f+3       8Cu4f-3   
  198    8Cu4f-2       8Cu4f-1       8Cu4f0        8Cu4f+1       8Cu4f+2       8Cu4f+3       8Cu5f-3       8Cu5f-2       8Cu5f-1       8Cu5f0    
  199    8Cu5f+1       8Cu5f+2       8Cu5f+3       8Cu6f-3       8Cu6f-2       8Cu6f-1       8Cu6f0        8Cu6f+1       8Cu6f+2       8Cu6f+3   
  200    8Cu7f-3       8Cu7f-2       8Cu7f-1       8Cu7f0        8Cu7f+1       8Cu7f+2       8Cu7f+3       8Cu8f-3       8Cu8f-2       8Cu8f-1   
  201    8Cu8f0        8Cu8f+1       8Cu8f+2       8Cu8f+3       8Cu9f-3       8Cu9f-2       8Cu9f-1       8Cu9f0        8Cu9f+1       8Cu9f+2   
  202    8Cu9f+3       8Cu1g-4       8Cu1g-3       8Cu1g-2       8Cu1g-1       8Cu1g0        8Cu1g+1       8Cu1g+2       8Cu1g+3       8Cu1g+4   
  203    8Cu2g-4       8Cu2g-3       8Cu2g-2       8Cu2g-1       8Cu2g0        8Cu2g+1       8Cu2g+2       8Cu2g+3       8Cu2g+4       8Cu3g-4   
  204    8Cu3g-3       8Cu3g-2       8Cu3g-1       8Cu3g0        8Cu3g+1       8Cu3g+2       8Cu3g+3       8Cu3g+4       8Cu4g-4       8Cu4g-3   
  205    8Cu4g-2       8Cu4g-1       8Cu4g0        8Cu4g+1       8Cu4g+2       8Cu4g+3       8Cu4g+4       8Cu5g-4       8Cu5g-3       8Cu5g-2   
  206    8Cu5g-1       8Cu5g0        8Cu5g+1       8Cu5g+2       8Cu5g+3       8Cu5g+4       8Cu1h-5       8Cu1h-4       8Cu1h-3       8Cu1h-2   
  207    8Cu1h-1       8Cu1h0        8Cu1h+1       8Cu1h+2       8Cu1h+3       8Cu1h+4       8Cu1h+5       8Cu2h-5       8Cu2h-4       8Cu2h-3   
  208    8Cu2h-2       8Cu2h-1       8Cu2h0        8Cu2h+1       8Cu2h+2       8Cu2h+3       8Cu2h+4       8Cu2h+5       8Cu3h-5       8Cu3h-4   
  209    8Cu3h-3       8Cu3h-2       8Cu3h-1       8Cu3h0        8Cu3h+1       8Cu3h+2       8Cu3h+3       8Cu3h+4       8Cu3h+5       8Cu1i-6   
  210    8Cu1i-5       8Cu1i-4       8Cu1i-3       8Cu1i-2       8Cu1i-1       8Cu1i0        8Cu1i+1       8Cu1i+2       8Cu1i+3       8Cu1i+4   
  211    8Cu1i+5       8Cu1i+6   
 
 Maximum number of basis functions per shell:   63
 Total number of basis functions:   2112
 
 
 Effective core potentials:
 
   1  Cu mcdhf-ecp-10        
   2  Cu mcdhf-ecp-10        
   3  Cu mcdhf-ecp-10        
   4  Cu mcdhf-ecp-10        
   5  Cu mcdhf-ecp-10        
   6  Cu mcdhf-ecp-10        
   7  Cu mcdhf-ecp-10        
   8  Cu mcdhf-ecp-10        
 
 Initializing the SAD routines for the initial guess...
 Checking the files required for the initial guess...
 Density files have not been found for the initial guess.
 Generating SCFDENSITIES.Cu.def2-svp.0
 CPU time [min]:     0.118                   Wall time [min]:     0.154
 
 Character table for point group C1:
 
          E  
    A     1
 
 Number of basis functions per irrep:
    A     248
 
 
 Calculation of overlap integrals...
 CPU time [min]:     0.120                   Wall time [min]:     0.154
 
 Calculation of the square root of the overlap matrix...
 Minimum eigenvalue of the overlap matrix: 0.185863E-01
 CPU time [min]:     0.148                   Wall time [min]:     0.155
 
 Calculation of kinetic energy integrals...
 CPU time [min]:     0.150                   Wall time [min]:     0.155
 Calculation of dipole moment integrals...
 CPU time [min]:     0.153                   Wall time [min]:     0.155
 Calculation of nuclear attraction integrals...
 CPU time [min]:     0.156                   Wall time [min]:     0.155
 Calculation of core potential integrals...
 CPU time [min]:     0.385                   Wall time [min]:     0.274
 
 Calculation of prescreening integrals...
 CPU time [min]:     1.610                   Wall time [min]:     0.309
 
 Calculation of two-center Coulomb integrals...
   1% done.
  12% done.
  23% done.
  34% done.
  46% done.
  57% done.
  69% done.
  81% done.
  92% done.
 100% done.
 CPU time [min]:     1.637                   Wall time [min]:     0.310
 
 Cholesky decomposition of the two-center matrix...
 Reciprocal of the condition number:  0.812770E-06
 Warning! Ill-conditioned two-center integral matrix.
 This may result in convergence problems.
 CPU time [min]:     1.777                   Wall time [min]:     0.314
 
 
 Running small-basis SCF...

 ************************ 2022-12-22 19:35:33 *************************
 Executing scf...

 @scfsetup: integrals calculated directly
            mrcc/integ direct run
 @scfsetup: calculating on full matrices
            not using symmetry adapted basis
 @scfsetup: diis switched on
 @scfsetup: number of steps to extrapolate from  10
 @scfsetup: tolerance in energy deviation    0.100000E-05
            tolerance in density deviation    0.100000E-06
 @scfsetup: maximum number of iterations:  50
 @scfsetup: restricted closed shell hf calc
 @scfsetup: starting scf from superposition of atomic densities
 @scfsetup: occupation set:
            from initial orbitals
 @scfsetup: Parameter-set for SCF acceleration: difficult
 @scfsetup: diis runs from iteration:   2
 @scfsetup: diis runs to iteration:  50
 @scfsetup: diis runs in every iteration
 @scfsetup: diiswatch is disabled                   
 @scfsetup: diis dtol criteria to switch on:      0.0000E+00
           (or the iteration number below is reached)
 @scfsetup: damping is turned off.
 @scfsetup: dynamic level shifting
            tolarance in HOMO-LUMO gap:  0.200
            tolarance in density deviation:     0.0000E+00
            iteration step criteria to turn level shifting off: 8
 Allocation of 220.0 Gbytes of memory...
 ======================================================================
 ITERATION STEP   1
 CPU time [min]:     0.032                   Wall time [min]:     0.005
 

 SCF control                  : initial
 Damping factor/level shift   : 0.000/0.200
 DIIS [start/end/frequency]   :   2 / 50 /  1

 Constructing Fock-matrix...
 
 Pipek-Mezey localization...
 Step  Convergence
   1  90.803599286480
   2  25.769820119956
   3   6.552748460485
   4   0.486746750468
   5   0.009051513080
   6   0.000018874916
   7   0.000000037341
 CPU time [min]:     0.068                   Wall time [min]:     0.006
 
 Constructing local fitting domains...
 Maximum number of atoms in fitting domains:    8
 Average number of atoms in fitting domains:    8.0
 
 First step of Coulomb + first step of exchange...
 Exchange contribution is evaluated for MOs 1 to 76.
   1% done.
  12% done.
  25% done.
  36% done.
  47% done.
  59% done.
  72% done.
  87% done.
 100% done.
 CPU time [min]:     0.780                   Wall time [min]:     0.026
 
 Fitting and assembly step of exchange...
 CPU time [min]:     0.881                   Wall time [min]:     0.029
 
 Second step of Coulomb...
   1% done.
  12% done.
  25% done.
  36% done.
  47% done.
  59% done.
  72% done.
  87% done.
 100% done.
 CPU time [min]:     1.021                   Wall time [min]:     0.033
 
 Gradient norm:      5.9922E+00
 RMS of [F,P]:                                         0.05379818013461
 RMS of difference density:                            0.27791351163178
 Gap [au]:  0.00003714
 ALPHA OCC:  76
 BETA  OCC:  76
 
 ***HARTREE-FOCK ENERGY IN STEP   1 IS      -1537.1969430234457832 [AU]
 ======================================================================
 ITERATION STEP   2
 CPU time [min]:     1.039                   Wall time [min]:     0.034
 

 SCF control                  : diis
 Damping factor/level shift   : 0.000/0.200
 DIIS [start/end/frequency]   :   2 / 50 /  1

 Constructing Fock-matrix...
 Inverse square root: The matrix is not positive definite!
 
 Pipek-Mezey localization...
 Step  Convergence
   1  53.587672138204
   2  17.846227283141
   3   6.219928354402
   4   0.793160722213
   5   0.051074122859
   6   0.032233073755
   7   0.026577690692
   8   0.021634780107
   9   0.019327471743
  10   0.018472718981
  11   0.020365767190
  12   0.029962310837
  13   0.053052150066
  14   0.076567353209
  15   0.075800986620
  16   0.040060985722
  17   0.019915835830
  18   0.013267863362
  19   0.010160622142
  20   0.008384634219
  21   0.007876294627
  22   0.007466317002
  23   0.006355746204
  24   0.005000849327
  25   0.003990180078
  26   0.003079989483
  27   0.002358664571
  28   0.001750854912
  29   0.001271718081
  30   0.000878811627
  31   0.000598926437
  32   0.000405219065
  33   0.000265714081
  34   0.000176140234
  35   0.000115338543
  36   0.000074250933
  37   0.000049345554
  38   0.000032182617
  39   0.000021108921
  40   0.000013836871
  41   0.000009062331
  42   0.000005986560
  43   0.000003886611
  44   0.000002616111
  45   0.000001704648
  46   0.000001121434
  47   0.000000740947
 CPU time [min]:     1.165                   Wall time [min]:     0.037
 
 Constructing local fitting domains...
 Maximum number of atoms in fitting domains:    8
 Average number of atoms in fitting domains:    8.0
 
 First step of Coulomb + first step of exchange...
 Exchange contribution is evaluated for MOs 1 to 76.
   1% done.
  12% done.
  25% done.
  36% done.
  47% done.
  59% done.
  72% done.
  87% done.
 100% done.
 CPU time [min]:     1.821                   Wall time [min]:     0.055
 
 Fitting and assembly step of exchange...
 CPU time [min]:     1.918                   Wall time [min]:     0.058
 
 Second step of Coulomb...
   1% done.
  12% done.
  25% done.
  36% done.
  47% done.
  59% done.
  72% done.
  87% done.
 100% done.
 CPU time [min]:     2.069                   Wall time [min]:     0.062
 
 Gradient norm:      6.0240E+00
 DIIS is running in this iteration step.
 RMS of [F,P]:                                         0.12172397776294
 RMS of difference density:                            0.27767352766611
 Gap [au]:  0.05469033
 ALPHA OCC:  76
 BETA  OCC:  76
 
 ***HARTREE-FOCK ENERGY IN STEP   2 IS      -1486.9620742173765393 [AU]
 
 Step comparison  Energy Drift [au]  DIIS error drift  Gradient drift
        1           -5.0235E+01        -6.7926E-02      -3.1834E-02
        2            1.4870E+03         1.0000E-07      -3.1834E-02
 Warning! The energy goes uphill (with respect to previous step).
 Warning! The gradient goes uphill (with respect to previous step).
 Warning! The gradient goes uphill (with respect to step   1 ).
 ======================================================================
 ITERATION STEP   3
 CPU time [min]:     2.086                   Wall time [min]:     0.063
 

 SCF control                  : diis
 Damping factor/level shift   : 0.000/0.200
 DIIS [start/end/frequency]   :   2 / 50 /  1

 Constructing Fock-matrix...
 Inverse square root: The matrix is not positive definite!
 
 Pipek-Mezey localization...
 Step  Convergence
   1  29.292939397715
   2   6.611805627219
   3   0.061425916692
   4   0.000022489096
   5   0.000000000093
 CPU time [min]:     2.117                   Wall time [min]:     0.064
 
 Constructing local fitting domains...
 Local fitting domains are unchanged.
 
 First step of Coulomb + first step of exchange...
 Exchange contribution is evaluated for MOs 1 to 76.
   1% done.
  12% done.
  25% done.
  36% done.
  47% done.
  59% done.
  72% done.
  87% done.
 100% done.
 CPU time [min]:     2.772                   Wall time [min]:     0.082
 
 Fitting and assembly step of exchange...
 CPU time [min]:     2.869                   Wall time [min]:     0.085
 
 Second step of Coulomb...
   1% done.
  12% done.
  25% done.
  36% done.
  47% done.
  59% done.
  72% done.
  87% done.
 100% done.
 CPU time [min]:     3.007                   Wall time [min]:     0.089
 
 Gradient norm:      2.3375E+00
 DIIS is running in this iteration step.
 RMS of [F,P]:                                         0.07139170774473
 RMS of difference density:                            0.03178685977668
 Gap [au]:  0.11456281
 ALPHA OCC:  76
 BETA  OCC:  76
 
 ***HARTREE-FOCK ENERGY IN STEP   3 IS      -1531.2318970863407230 [AU]
 
 Step comparison  Energy Drift [au]  DIIS error drift  Gradient drift
        2            4.4270E+01         5.0332E-02       3.6865E+00
 ======================================================================
 ITERATION STEP   4
 CPU time [min]:     3.022                   Wall time [min]:     0.089
 

 SCF control                  : diis
 Damping factor/level shift   : 0.000/0.200
 DIIS [start/end/frequency]   :   2 / 50 /  1

 Constructing Fock-matrix...
 
 Pipek-Mezey localization...
 Step  Convergence
   1  16.558493608692
   2   7.408878210120
   3   0.376116676127
   4   0.001321242717
   5   0.000000029402
 CPU time [min]:     3.054                   Wall time [min]:     0.090
 
 Constructing local fitting domains...
 Local fitting domains are unchanged.
 
 First step of Coulomb + first step of exchange...
 Exchange contribution is evaluated for MOs 1 to 76.
   1% done.
  12% done.
  25% done.
  36% done.
  47% done.
  59% done.
  72% done.
  87% done.
 100% done.
 CPU time [min]:     3.708                   Wall time [min]:     0.108
 
 Fitting and assembly step of exchange...
 CPU time [min]:     3.806                   Wall time [min]:     0.111
 
 Second step of Coulomb...
   1% done.
  12% done.
  25% done.
  36% done.
  47% done.
  59% done.
  72% done.
  87% done.
 100% done.
 CPU time [min]:     3.948                   Wall time [min]:     0.115
 
 Gradient norm:      1.1614E+00
 DIIS is running in this iteration step.
 RMS of [F,P]:                                         0.02051224025836
 RMS of difference density:                            0.01469804221611
 Gap [au]:  0.17180912
 ALPHA OCC:  76
 BETA  OCC:  76
 
 ***HARTREE-FOCK ENERGY IN STEP   4 IS      -1552.0214603920849186 [AU]
 
 Step comparison  Energy Drift [au]  DIIS error drift  Gradient drift
        3            2.0790E+01         5.0879E-02       1.1761E+00
 ======================================================================
 ITERATION STEP   5
 CPU time [min]:     3.964                   Wall time [min]:     0.115
 

 SCF control                  : diis
 Damping factor/level shift   : 0.000/0.200
 DIIS [start/end/frequency]   :   2 / 50 /  1

 Constructing Fock-matrix...
 
 Pipek-Mezey localization...
 Step  Convergence
   1  16.564037897309
   2   4.791043776967
   3   0.038099205309
   4   0.000012802259
   5   0.000000000438
 CPU time [min]:     3.995                   Wall time [min]:     0.116
 
 Constructing local fitting domains...
 Local fitting domains are unchanged.
 
 First step of Coulomb + first step of exchange...
 Exchange contribution is evaluated for MOs 1 to 76.
   1% done.
  12% done.
  25% done.
  36% done.
  47% done.
  59% done.
  72% done.
  87% done.
 100% done.
 CPU time [min]:     4.650                   Wall time [min]:     0.134
 
 Fitting and assembly step of exchange...
 CPU time [min]:     4.747                   Wall time [min]:     0.137
 
 Second step of Coulomb...
   1% done.
  12% done.
  25% done.
  36% done.
  47% done.
  59% done.
  72% done.
  87% done.
 100% done.
 CPU time [min]:     4.885                   Wall time [min]:     0.141
 
 Gradient norm:      2.8210E-01
 DIIS is running in this iteration step.
 RMS of [F,P]:                                         0.00542596418987
 RMS of difference density:                            0.00522318916782
 Gap [au]:  0.18130932
 ALPHA OCC:  76
 BETA  OCC:  76
 
 ***HARTREE-FOCK ENERGY IN STEP   5 IS      -1554.0137694933982857 [AU]
 
 Step comparison  Energy Drift [au]  DIIS error drift  Gradient drift
        4            1.9923E+00         1.5086E-02       8.7929E-01
 ======================================================================
 ITERATION STEP   6
 CPU time [min]:     4.900                   Wall time [min]:     0.141
 

 SCF control                  : diis
 Damping factor/level shift   : 0.000/0.200
 DIIS [start/end/frequency]   :   2 / 50 /  1

 Constructing Fock-matrix...
 
 Pipek-Mezey localization...
 Step  Convergence
   1  20.532692026066
   2   6.948331260501
   3   0.111318529391
   4   0.000050768041
   5   0.000000000776
 CPU time [min]:     4.932                   Wall time [min]:     0.142
 
 Constructing local fitting domains...
 Local fitting domains are unchanged.
 
 First step of Coulomb + first step of exchange...
 Exchange contribution is evaluated for MOs 1 to 76.
   1% done.
  12% done.
  25% done.
  36% done.
  47% done.
  59% done.
  72% done.
  87% done.
 100% done.
 CPU time [min]:     5.587                   Wall time [min]:     0.161
 
 Fitting and assembly step of exchange...
 CPU time [min]:     5.684                   Wall time [min]:     0.163
 
 Second step of Coulomb...
   1% done.
  12% done.
  25% done.
  36% done.
  47% done.
  59% done.
  72% done.
  87% done.
 100% done.
 CPU time [min]:     5.822                   Wall time [min]:     0.167
 
 Gradient norm:      1.1936E-01
 DIIS is running in this iteration step.
 RMS of [F,P]:                                         0.00273409754237
 RMS of difference density:                            0.00275576002416
 Gap [au]:  0.20491717
 ALPHA OCC:  76
 BETA  OCC:  76
 
 ***HARTREE-FOCK ENERGY IN STEP   6 IS      -1554.1593909278453793 [AU]
 
 Step comparison  Energy Drift [au]  DIIS error drift  Gradient drift
        5            1.4562E-01         2.6919E-03       1.6273E-01
 ======================================================================
 ITERATION STEP   7
 CPU time [min]:     5.837                   Wall time [min]:     0.168
 

 SCF control                  : diis
 Damping factor/level shift   : 0.000/0.000
 DIIS [start/end/frequency]   :   2 / 50 /  1

 Constructing Fock-matrix...
 
 Pipek-Mezey localization...
 Step  Convergence
   1  24.243889159664
   2   8.838537609124
   3   3.231732712520
   4   0.510708158549
   5   0.084338663355
   6   0.008904845064
   7   0.001209199097
   8   0.000130077146
   9   0.000022704213
  10   0.000002933152
  11   0.000000536413
  12   0.000000078219
 CPU time [min]:     5.884                   Wall time [min]:     0.169
 
 Constructing local fitting domains...
 Local fitting domains are unchanged.
 
 First step of Coulomb + first step of exchange...
 Exchange contribution is evaluated for MOs 1 to 76.
   1% done.
  12% done.
  25% done.
  36% done.
  47% done.
  59% done.
  72% done.
  87% done.
 100% done.
 CPU time [min]:     6.539                   Wall time [min]:     0.187
 
 Fitting and assembly step of exchange...
 CPU time [min]:     6.637                   Wall time [min]:     0.190
 
 Second step of Coulomb...
   1% done.
  12% done.
  25% done.
  36% done.
  47% done.
  59% done.
  72% done.
  87% done.
 100% done.
 CPU time [min]:     6.774                   Wall time [min]:     0.194
 
 Gradient norm:      5.4493E-02
 DIIS is running in this iteration step.
 RMS of [F,P]:                                         0.00067381590096
 RMS of difference density:                            0.00228727386808
 Gap [au]:  0.21506653
 ALPHA OCC:  76
 BETA  OCC:  76
 
 ***HARTREE-FOCK ENERGY IN STEP   7 IS      -1554.2007160590246713 [AU]
 
 Step comparison  Energy Drift [au]  DIIS error drift  Gradient drift
        6            4.1325E-02         2.0603E-03       6.4871E-02
 ======================================================================
 ITERATION STEP   8
 CPU time [min]:     6.789                   Wall time [min]:     0.194
 

 SCF control                  : diis
 Damping factor/level shift   : 0.000/0.000
 DIIS [start/end/frequency]   :   2 / 50 /  1

 Constructing Fock-matrix...
 
 Pipek-Mezey localization...
 Step  Convergence
   1  25.194905278569
   2  10.322154326552
   3   8.960984075467
   4   1.866549078627
   5   0.345365490232
   6   0.000823331796
   7   0.000028541338
   8   0.000001777248
   9   0.000000150515
  10   0.000000013750
  11   0.000000001006
 CPU time [min]:     6.834                   Wall time [min]:     0.196
 
 Constructing local fitting domains...
 Local fitting domains are unchanged.
 
 First step of Coulomb + first step of exchange...
 Exchange contribution is evaluated for MOs 1 to 76.
   1% done.
  12% done.
  25% done.
  36% done.
  47% done.
  59% done.
  72% done.
  87% done.
 100% done.
 CPU time [min]:     7.489                   Wall time [min]:     0.214
 
 Fitting and assembly step of exchange...
 CPU time [min]:     7.586                   Wall time [min]:     0.217
 
 Second step of Coulomb...
   1% done.
  12% done.
  25% done.
  36% done.
  47% done.
  59% done.
  72% done.
  87% done.
 100% done.
 CPU time [min]:     7.724                   Wall time [min]:     0.220
 
 Gradient norm:      1.6764E-02
 DIIS is running in this iteration step.
 RMS of [F,P]:                                         0.00019513303932
 RMS of difference density:                            0.00053813979550
 Gap [au]:  0.21224317
 ALPHA OCC:  76
 BETA  OCC:  76
 
 ***HARTREE-FOCK ENERGY IN STEP   8 IS      -1554.2115536527589938 [AU]
 
 Step comparison  Energy Drift [au]  DIIS error drift  Gradient drift
        7            1.0838E-02         4.7868E-04       3.7729E-02
 ======================================================================
 ITERATION STEP   9
 CPU time [min]:     7.739                   Wall time [min]:     0.221
 

 SCF control                  : diis
 Damping factor/level shift   : 0.000/0.000
 DIIS [start/end/frequency]   :   2 / 50 /  1

 Constructing Fock-matrix...
 
 Pipek-Mezey localization...
 Step  Convergence
   1  23.047929639262
   2  10.961496572976
   3  13.620683449628
   4   2.232426105435
   5   0.156422419405
   6   0.047760904270
   7   0.021183882677
   8   0.003987305433
   9   0.001042659082
  10   0.000419765726
  11   0.000197558566
  12   0.000088582423
  13   0.000041075223
  14   0.000022665741
  15   0.000011316872
  16   0.000005013644
  17   0.000002530011
  18   0.000001441720
  19   0.000000729936
  20   0.000000339769
  21   0.000000187037
  22   0.000000091177
  23   0.000000042684
  24   0.000000020236
  25   0.000000010944
  26   0.000000006277
  27   0.000000002927
  28   0.000000001580
  29   0.000000000718
 CPU time [min]:     7.832                   Wall time [min]:     0.223
 
 Constructing local fitting domains...
 Local fitting domains are unchanged.
 
 First step of Coulomb + first step of exchange...
 Exchange contribution is evaluated for MOs 1 to 76.
   1% done.
  12% done.
  25% done.
  36% done.
  47% done.
  59% done.
  72% done.
  87% done.
 100% done.
 CPU time [min]:     8.501                   Wall time [min]:     0.242
 
 Fitting and assembly step of exchange...
 CPU time [min]:     8.599                   Wall time [min]:     0.245
 
 Second step of Coulomb...
   1% done.
  12% done.
  25% done.
  36% done.
  47% done.
  59% done.
  72% done.
  87% done.
 100% done.
 CPU time [min]:     8.736                   Wall time [min]:     0.249
 
 Gradient norm:      1.0894E-02
 DIIS is running in this iteration step.
 RMS of [F,P]:                                         0.00010896603999
 RMS of difference density:                            0.00040098758812
 Gap [au]:  0.21232141
 ALPHA OCC:  76
 BETA  OCC:  76
 
 ***HARTREE-FOCK ENERGY IN STEP   9 IS      -1554.2126185802317195 [AU]
 
 Step comparison  Energy Drift [au]  DIIS error drift  Gradient drift
        8            1.0649E-03         8.6167E-05       5.8704E-03
 ======================================================================
 ITERATION STEP  10
 CPU time [min]:     8.751                   Wall time [min]:     0.249
 

 SCF control                  : diis
 Damping factor/level shift   : 0.000/0.000
 DIIS [start/end/frequency]   :   2 / 50 /  1

 Constructing Fock-matrix...
 
 Pipek-Mezey localization...
 Step  Convergence
   1  27.467671076761
   2   8.876104215370
   3  19.411177425698
   4   5.793478560997
   5   0.592645730138
   6   0.051008316353
   7   0.024571203850
   8   0.040752690269
   9   0.035844261548
  10   0.011657087860
  11   0.002605517724
  12   0.000863964952
  13   0.000312585786
  14   0.000115206553
  15   0.000043204312
  16   0.000016344951
  17   0.000006224149
  18   0.000002358510
  19   0.000000891625
  20   0.000000336382
  21   0.000000126883
  22   0.000000048416
  23   0.000000018489
  24   0.000000007017
  25   0.000000002671
  26   0.000000001010
  27   0.000000000382
  28   0.000000000147
  29   0.000000000057
  30   0.000000000021
  31   0.000000000008
  32   0.000000000003
  33   0.000000000001
  34   0.000000000001
 CPU time [min]:     8.848                   Wall time [min]:     0.252
 
 Constructing local fitting domains...
 Local fitting domains are unchanged.
 
 First step of Coulomb + first step of exchange...
 Exchange contribution is evaluated for MOs 1 to 76.
   1% done.
  12% done.
  25% done.
  36% done.
  47% done.
  59% done.
  72% done.
  87% done.
 100% done.
 CPU time [min]:     9.502                   Wall time [min]:     0.270
 
 Fitting and assembly step of exchange...
 CPU time [min]:     9.600                   Wall time [min]:     0.273
 
 Second step of Coulomb...
   1% done.
  12% done.
  25% done.
  36% done.
  47% done.
  59% done.
  72% done.
  87% done.
 100% done.
 CPU time [min]:     9.737                   Wall time [min]:     0.277
 
 Gradient norm:      6.3952E-03
 DIIS is running in this iteration step.
 RMS of [F,P]:                                         0.00004117570366
 RMS of difference density:                            0.00026237232530
 Gap [au]:  0.21202009
 ALPHA OCC:  76
 BETA  OCC:  76
 
 ***HARTREE-FOCK ENERGY IN STEP  10 IS      -1554.2130855266259459 [AU]
 
 Step comparison  Energy Drift [au]  DIIS error drift  Gradient drift
        9            4.6695E-04         6.7790E-05       4.4988E-03
 ======================================================================
 ITERATION STEP  11
 CPU time [min]:     9.752                   Wall time [min]:     0.277
 

 SCF control                  : diis
 Damping factor/level shift   : 0.000/0.000
 DIIS [start/end/frequency]   :   2 / 50 /  1

 Constructing Fock-matrix...
 
 Pipek-Mezey localization...
 Step  Convergence
   1  25.541823205194
   2  10.469312088718
   3  21.746006484417
   4   4.488831863157
   5   0.537962823261
   6   0.035892035592
   7   0.002623244502
   8   0.000369689088
   9   0.000089468229
  10   0.000026905380
  11   0.000009600044
  12   0.000003478523
  13   0.000001134486
  14   0.000000394021
  15   0.000000154330
  16   0.000000052079
  17   0.000000019973
  18   0.000000006813
  19   0.000000002680
  20   0.000000001025
  21   0.000000000314
  22   0.000000000126
  23   0.000000000043
  24   0.000000000015
  25   0.000000000007
  26   0.000000000002
  27   0.000000000001
  28   0.000000000000
 CPU time [min]:     9.835                   Wall time [min]:     0.279
 
 Constructing local fitting domains...
 Local fitting domains are unchanged.
 
 First step of Coulomb + first step of exchange...
 Exchange contribution is evaluated for MOs 1 to 76.
   1% done.
  12% done.
  25% done.
  36% done.
  47% done.
  59% done.
  72% done.
  87% done.
 100% done.
 CPU time [min]:    10.490                   Wall time [min]:     0.298
 
 Fitting and assembly step of exchange...
 CPU time [min]:    10.587                   Wall time [min]:     0.300
 
 Second step of Coulomb...
   1% done.
  12% done.
  25% done.
  36% done.
  47% done.
  59% done.
  72% done.
  87% done.
 100% done.
 CPU time [min]:    10.728                   Wall time [min]:     0.304
 
 Gradient norm:      2.9125E-03
 DIIS is running in this iteration step.
 RMS of [F,P]:                                         0.00002487594910
 RMS of difference density:                            0.00010852400096
 Gap [au]:  0.21198049
 ALPHA OCC:  76
 BETA  OCC:  76
 
 ***HARTREE-FOCK ENERGY IN STEP  11 IS      -1554.2132221694373584 [AU]
 
 Step comparison  Energy Drift [au]  DIIS error drift  Gradient drift
       10            1.3664E-04         1.6300E-05       3.4827E-03
 ======================================================================
 ITERATION STEP  12
 CPU time [min]:    10.743                   Wall time [min]:     0.305
 

 SCF control                  : diis
 Damping factor/level shift   : 0.000/0.000
 DIIS [start/end/frequency]   :   2 / 50 /  1

 Constructing Fock-matrix...
 
 Pipek-Mezey localization...
 Step  Convergence
   1  25.481855878164
   2  12.413619574216
   3  17.724808362779
   4   6.779426052750
   5   2.110452685786
   6   1.093774383852
   7   0.163326157635
   8   0.072438582780
   9   0.006944122031
  10   0.000513614008
  11   0.000044147117
  12   0.000006393087
  13   0.000001221874
  14   0.000000310277
  15   0.000000089574
  16   0.000000027968
  17   0.000000009593
  18   0.000000003245
  19   0.000000001070
  20   0.000000000346
  21   0.000000000116
  22   0.000000000039
  23   0.000000000013
  24   0.000000000005
  25   0.000000000002
  26   0.000000000001
 CPU time [min]:    10.821                   Wall time [min]:     0.307
 
 Constructing local fitting domains...
 Local fitting domains are unchanged.
 
 First step of Coulomb + first step of exchange...
 Exchange contribution is evaluated for MOs 1 to 76.
   1% done.
  12% done.
  25% done.
  36% done.
  47% done.
  59% done.
  72% done.
  87% done.
 100% done.
 CPU time [min]:    11.476                   Wall time [min]:     0.325
 
 Fitting and assembly step of exchange...
 CPU time [min]:    11.574                   Wall time [min]:     0.328
 
 Second step of Coulomb...
   1% done.
  12% done.
  25% done.
  36% done.
  47% done.
  59% done.
  72% done.
  87% done.
 100% done.
 CPU time [min]:    11.711                   Wall time [min]:     0.332
 
 Gradient norm:      1.6693E-03
 DIIS is running in this iteration step.
 RMS of [F,P]:                                         0.00001557612314
 RMS of difference density:                            0.00011404476667
 Gap [au]:  0.21191817
 ALPHA OCC:  76
 BETA  OCC:  76
 
 ***HARTREE-FOCK ENERGY IN STEP  12 IS      -1554.2132519971310103 [AU]
 
 Step comparison  Energy Drift [au]  DIIS error drift  Gradient drift
       11            2.9828E-05         9.2998E-06       1.2432E-03
 ======================================================================
 ITERATION STEP  13
 CPU time [min]:    11.727                   Wall time [min]:     0.332
 

 SCF control                  : diis
 Damping factor/level shift   : 0.000/0.000
 DIIS [start/end/frequency]   :   2 / 50 /  1

 Constructing Fock-matrix...
 
 Pipek-Mezey localization...
 Step  Convergence
   1  26.267039207811
   2  11.154968612119
   3  13.850171759059
   4   5.256202941875
   5   0.627857085714
   6   0.056749887418
   7   0.004887174722
   8   0.000624151027
   9   0.000153682369
  10   0.000047896496
  11   0.000015660811
  12   0.000005276390
  13   0.000001735167
  14   0.000000553470
  15   0.000000176179
  16   0.000000056134
  17   0.000000017346
  18   0.000000005574
  19   0.000000001838
  20   0.000000000611
  21   0.000000000221
  22   0.000000000071
  23   0.000000000026
  24   0.000000000008
  25   0.000000000003
  26   0.000000000001
 CPU time [min]:    11.805                   Wall time [min]:     0.334
 
 Constructing local fitting domains...
 Local fitting domains are unchanged.
 
 First step of Coulomb + first step of exchange...
 Exchange contribution is evaluated for MOs 1 to 76.
   1% done.
  12% done.
  25% done.
  36% done.
  47% done.
  59% done.
  72% done.
  87% done.
 100% done.
 CPU time [min]:    12.459                   Wall time [min]:     0.353
 
 Fitting and assembly step of exchange...
 CPU time [min]:    12.556                   Wall time [min]:     0.355
 
 Second step of Coulomb...
   1% done.
  12% done.
  25% done.
  36% done.
  47% done.
  59% done.
  72% done.
  87% done.
 100% done.
 CPU time [min]:    12.694                   Wall time [min]:     0.359
 
 Gradient norm:      3.2364E-04
 DIIS is running in this iteration step.
 RMS of [F,P]:                                         0.00000404491216
 RMS of difference density:                            0.00002458195718
 Gap [au]:  0.21190244
 ALPHA OCC:  76
 BETA  OCC:  76
 
 ***HARTREE-FOCK ENERGY IN STEP  13 IS      -1554.2132666176530620 [AU]
 
 Step comparison  Energy Drift [au]  DIIS error drift  Gradient drift
       12            1.4621E-05         1.1531E-05       1.3457E-03
 ======================================================================
 ITERATION STEP  14
 CPU time [min]:    12.741                   Wall time [min]:     0.361
 

 SCF control                  : diis
 Damping factor/level shift   : 0.000/0.000
 DIIS [start/end/frequency]   :   2 / 50 /  1

 Constructing Fock-matrix...
 
 Pipek-Mezey localization...
 Step  Convergence
   1  28.271631854770
   2  11.308858717535
   3  17.640710210463
   4   6.756671316007
   5   0.855463238986
   6   0.045917532410
   7   0.002462207789
   8   0.000340271248
   9   0.000051650704
  10   0.000010548454
  11   0.000002929278
  12   0.000001096585
  13   0.000000337144
  14   0.000000112936
  15   0.000000040981
  16   0.000000015358
  17   0.000000007433
  18   0.000000002274
  19   0.000000000990
  20   0.000000000396
  21   0.000000000125
  22   0.000000000039
  23   0.000000000013
  24   0.000000000004
  25   0.000000000001
  26   0.000000000000
 CPU time [min]:    12.820                   Wall time [min]:     0.363
 
 Constructing local fitting domains...
 Local fitting domains are unchanged.
 
 First step of Coulomb + first step of exchange...
 Exchange contribution is evaluated for MOs 1 to 76.
   1% done.
  12% done.
  25% done.
  36% done.
  47% done.
  59% done.
  72% done.
  87% done.
 100% done.
 CPU time [min]:    13.475                   Wall time [min]:     0.381
 
 Fitting and assembly step of exchange...
 CPU time [min]:    13.572                   Wall time [min]:     0.384
 
 Second step of Coulomb...
   1% done.
  12% done.
  25% done.
  36% done.
  47% done.
  59% done.
  72% done.
  87% done.
 100% done.
 CPU time [min]:    13.710                   Wall time [min]:     0.388
 
 Gradient norm:      6.9667E-05
 DIIS is running in this iteration step.
 RMS of [F,P]:                                         0.00000155153189
 RMS of difference density:                            0.00000363007613
 Gap [au]:  0.21190471
 ALPHA OCC:  76
 BETA  OCC:  76
 
 ***HARTREE-FOCK ENERGY IN STEP  14 IS      -1554.2132675698403546 [AU]
 
 Step comparison  Energy Drift [au]  DIIS error drift  Gradient drift
       13            9.5219E-07         2.4934E-06       2.5397E-04
 ======================================================================
 ITERATION STEP  15
 CPU time [min]:    13.725                   Wall time [min]:     0.388
 

 SCF control                  : diis
 Damping factor/level shift   : 0.000/0.000
 DIIS [start/end/frequency]   :   2 / 50 /  1

 Constructing Fock-matrix...
 
 Pipek-Mezey localization...
 Step  Convergence
   1  24.542237751215
   2  13.035243744243
   3  14.758093647591
   4   5.307227018675
   5   0.561232744906
   6   0.004134947443
   7   0.001174312647
   8   0.000458044262
   9   0.000249420784
  10   0.000097389596
  11   0.000030601043
  12   0.000009746230
  13   0.000002431602
  14   0.000001120136
  15   0.000000357944
  16   0.000000128801
  17   0.000000070773
  18   0.000000026963
  19   0.000000008554
  20   0.000000002109
  21   0.000000000983
  22   0.000000000409
  23   0.000000000100
  24   0.000000000035
  25   0.000000000019
  26   0.000000000006
  27   0.000000000002
  28   0.000000000001
 CPU time [min]:    13.808                   Wall time [min]:     0.390
 
 Constructing local fitting domains...
 Local fitting domains are unchanged.
 
 First step of Coulomb + first step of exchange...
 Exchange contribution is evaluated for MOs 1 to 76.
   1% done.
  12% done.
  25% done.
  36% done.
  47% done.
  59% done.
  72% done.
  87% done.
 100% done.
 CPU time [min]:    14.463                   Wall time [min]:     0.409
 
 Fitting and assembly step of exchange...
 CPU time [min]:    14.560                   Wall time [min]:     0.411
 
 Second step of Coulomb...
   1% done.
  12% done.
  25% done.
  36% done.
  47% done.
  59% done.
  72% done.
  87% done.
 100% done.
 CPU time [min]:    14.697                   Wall time [min]:     0.415
 
 Gradient norm:      3.8412E-05
 DIIS is running in this iteration step.
 RMS of [F,P]:                                         0.00000115822719
 RMS of difference density:                            0.00000204212273
 Gap [au]:  0.21190060
 ALPHA OCC:  76
 BETA  OCC:  76
 
 ***HARTREE-FOCK ENERGY IN STEP  15 IS      -1554.2132676096580326 [AU]
 
 Step comparison  Energy Drift [au]  DIIS error drift  Gradient drift
       14            3.9818E-08         3.9330E-07       3.1255E-05
 ======================================================================
 ITERATION STEP  16
 CPU time [min]:    14.713                   Wall time [min]:     0.416
 

 SCF control                  : diis
 Damping factor/level shift   : 0.000/0.000
 DIIS [start/end/frequency]   :   2 / 50 /  1

 Constructing Fock-matrix...
 
 Pipek-Mezey localization...
 Step  Convergence
   1  23.182851588583
   2  10.838064792842
   3  17.677308923726
   4   6.175653541199
   5   0.727653960304
   6   0.031727065166
   7   0.005681933842
   8   0.001668288896
   9   0.000530342043
  10   0.000168503617
  11   0.000053571871
  12   0.000017000694
  13   0.000005388179
  14   0.000001705884
  15   0.000000538963
  16   0.000000170715
  17   0.000000054088
  18   0.000000017152
  19   0.000000005436
  20   0.000000001721
  21   0.000000000547
  22   0.000000000173
  23   0.000000000054
  24   0.000000000017
  25   0.000000000006
  26   0.000000000002
  27   0.000000000001
 CPU time [min]:    14.794                   Wall time [min]:     0.418
 
 Constructing local fitting domains...
 Local fitting domains are unchanged.
 
 First step of Coulomb + first step of exchange...
 Exchange contribution is evaluated for MOs 1 to 76.
   1% done.
  12% done.
  25% done.
  36% done.
  47% done.
  59% done.
  72% done.
  87% done.
 100% done.
 CPU time [min]:    15.450                   Wall time [min]:     0.436
 
 Fitting and assembly step of exchange...
 CPU time [min]:    15.547                   Wall time [min]:     0.439
 
 Second step of Coulomb...
   1% done.
  12% done.
  25% done.
  36% done.
  47% done.
  59% done.
  72% done.
  87% done.
 100% done.
 CPU time [min]:    15.685                   Wall time [min]:     0.443
 
 Gradient norm:      1.1569E-05
 DIIS is running in this iteration step.
 RMS of [F,P]:                                         0.00000020437552
 RMS of difference density:                            0.00000043916791
 Gap [au]:  0.21189882
 ALPHA OCC:  76
 BETA  OCC:  76
 
 ***HARTREE-FOCK ENERGY IN STEP  16 IS      -1554.2132676209103010 [AU]
 
 Step comparison  Energy Drift [au]  DIIS error drift  Gradient drift
       15            1.1252E-08         9.5385E-07       2.6843E-05
 ======================================================================
 ITERATION STEP  17
 CPU time [min]:    15.700                   Wall time [min]:     0.443
 

 SCF control                  : diis
 Damping factor/level shift   : 0.000/0.000
 DIIS [start/end/frequency]   :   2 / 50 /  1

 Constructing Fock-matrix...
 
 Pipek-Mezey localization...
 Step  Convergence
   1  25.386722112499
   2  12.607539612033
   3  16.587955902010
   4   6.970547618238
   5   1.486730454306
   6   0.122109561874
   7   0.516955922389
   8   0.303052688237
   9   0.041059929091
  10   0.003169202451
[...]
 
 (T) correction [au]:                   -0.010946617032
 CCSD(T) correlation energy [au]:       -0.090346189910
 
 CPU time [min]:  7076.550                   Wall time [min]:   256.889
 
 MO:    75
 Number of atoms in domain:       8
 Number of atomic orbitals:     976
 Number of atoms for local DF:    8
 Number of fitting functions:  2888 (100.00%)
 Warning: drop high-lying PAOs                     8
 Number of occupied orbitals:    76
 Number of virtual  orbitals:   892
 Number of Cholesky vectors:      9
 MP2 energy in ED [au]:          -0.093353453955
 Number of occupied LNOs:        57  (75.00%)
 Number of virtual  LNOs:       269  (30.16%)
dropped smallnorm     2     3   6.28415934E-06
dropped smallnorm    13    15   2.63815959E-05
dropped smallnorm    13    16   1.93101745E-05
dropped smallnorm    13    17   2.25439129E-05
 tol*100>norm                    43  5.037616235624246E-003
 tol*100>norm                    44  3.325851460918873E-003
 tol*100>norm                    45  2.949377169649789E-003
 tol*100>norm                    46  3.693965163011459E-003
 tol*100>norm                    47  4.693151542217418E-003
dropped smallnorm   120   125   6.28647827E-06
dropped smallnorm   131   137   2.63872401E-05
dropped smallnorm   131   138   1.93148397E-05
dropped smallnorm   131   139   2.25277759E-05
 tol*100>norm                   165  5.034401269073869E-003
 tol*100>norm                   166  3.325104085133591E-003
 tol*100>norm                   167  2.949180591382416E-003
 tol*100>norm                   168  3.691647645732192E-003
 tol*100>norm                   169  4.690776223400723E-003
dropped smallnorm   238   247   7.16368023E-06
dropped smallnorm   249   259   2.53286630E-05
dropped smallnorm   249   260   2.59497860E-05
dropped smallnorm   249   261   2.96108651E-05
 tol*100>norm                   287  2.852177242607682E-003
 tol*100>norm                   288  3.594417892704341E-003
 tol*100>norm                   289  3.233240253906380E-003
 tol*100>norm                   290  3.104983639857305E-003
 tol*100>norm                   291  2.988776961589320E-003
dropped smallnorm   356   369   7.16468564E-06
dropped smallnorm   367   381   2.59596905E-05
dropped smallnorm   367   382   2.53327909E-05
dropped smallnorm   367   383   2.96081943E-05
 tol*100>norm                   409  3.107048743152780E-003
 tol*100>norm                   410  3.594231801319090E-003
 tol*100>norm                   411  2.569290046373697E-003
 tol*100>norm                   412  2.852142599596569E-003
 tol*100>norm                   413  3.647532333331313E-003
dropped smallnorm   474   491   6.28973553E-06
dropped smallnorm   485   503   1.93219484E-05
dropped smallnorm   485   504   2.64043785E-05
dropped smallnorm   485   505   2.25393001E-05
 tol*100>norm                   531  3.693766827548366E-003
 tol*100>norm                   532  3.325588042968338E-003
 tol*100>norm                   533  3.786199141365342E-003
 tol*100>norm                   534  5.026336140825018E-003
 tol*100>norm                   535  3.845034427252720E-003
dropped smallnorm   592   613   7.16521149E-06
dropped smallnorm   603   625   2.59493230E-05
dropped smallnorm   603   626   2.53323711E-05
dropped smallnorm   603   627   2.96167425E-05
 tol*100>norm                   653  3.106845562200024E-003
 tol*100>norm                   654  3.592709953046092E-003
 tol*100>norm                   655  2.568296904638586E-003
 tol*100>norm                   656  2.850602004615072E-003
 tol*100>norm                   657  3.648966584916593E-003
dropped smallnorm   710   735   6.28992270E-06
dropped smallnorm   721   747   1.93196638E-05
dropped smallnorm   721   748   2.64043849E-05
dropped smallnorm   721   749   2.25430948E-05
 tol*100>norm                   775  3.692491409477667E-003
 tol*100>norm                   776  3.323821857934262E-003
 tol*100>norm                   777  3.784590323469179E-003
 tol*100>norm                   778  5.025386543593484E-003
 tol*100>norm                   779  3.846550528729330E-003
dropped smallnorm   828   857   7.16246448E-06
dropped smallnorm   839   869   2.53336629E-05
dropped smallnorm   839   870   2.59353534E-05
dropped smallnorm   839   871   2.96233452E-05
 tol*100>norm                   897  2.849235132621165E-003
 tol*100>norm                   898  3.595661109793011E-003
 tol*100>norm                   899  3.234338215471812E-003
 tol*100>norm                   900  3.106442879424923E-003
 tol*100>norm                   901  2.990524739403667E-003
 Number of Cholesky vectors:      8
 MP2 energy in LIS [au]:         -0.090085791196
 Correction for frozen LNO [au]: -0.003267662758     (3.500%)
 Number of NAFs:               1128  (39.06%)
 CPU time [min]:  7160.157                   Wall time [min]:   260.165
 

 Direct DF-CCSD(T) calculation
 
 Convergence criterion:  1.0E-05
 
 Number of occupied/virtual/auxiliary orbitals:    57   269  1128
   5786.71 MB is the minimal memory requirement for (T)
   3794.84 MB is the minimal memory requirement for CCSD
 
 MP2 correlation energy [au]:       -4.237980298787
 
 LMP2 domain correlation energy contribution [au]:       -0.090083358861
 
 CPU time [min]:  7162.138                   Wall time [min]:   260.551
 
 
 Starting CCSD iterations...
 
                     Residual norm       Correlation Energy
 Iteration  1        1.117129407153       -3.195857884819
 Iteration  2        0.825105842039       -3.603426276983
 Iteration  3        0.123530606025       -3.650823888832
 Iteration  4        0.067618264146       -3.655733738935
 Iteration  5        0.035003555399       -3.647917322414
 Iteration  6        0.016438384993       -3.644512430040
 Iteration  7        0.009790904537       -3.645832106913
 Iteration  8        0.005027359372       -3.646778060616
 Iteration  9        0.002881614760       -3.646642978595
 Iteration 10        0.001647680199       -3.646527763667
 Iteration 11        0.000989346120       -3.646617761246
 Iteration 12        0.000557759217       -3.646593605602
 Iteration 13        0.000321536457       -3.646540251893
 Iteration 14        0.000185881129       -3.646550671896
 Iteration 15        0.000107845177       -3.646568743269
 Iteration 16        0.000061789775       -3.646567333269
 Iteration 17        0.000034700046       -3.646561960616
 
 CCSD iteration has converged in 17 steps.
    23717.67 MB memory was utilized by CCSD
 
 T1 diagnostic:      3.794E-02            D1 diagnostic:      1.309E-01
 
 T1 contribution [au]:                         0.000000000000
 CCSD correlation energy [au]:                -0.079401910594
 
 CPU time [min]:  7884.626                   Wall time [min]:   289.737
 
 Calculation of (T) correction...
 
 Laplace threshold, nquadmin:  1.00E-02   3
 Number of quadrature points:    3
 
    14999.79 MB memory is utilized for (T)

 0%       25%       50%       75%       100%
 |---------|---------|---------|---------| 
 
 (T) correction [au]:                   -0.010946624110
 CCSD(T) correlation energy [au]:       -0.090348534703
 
 CPU time [min]:  8423.367                   Wall time [min]:   305.577
 
 MO:    76
 Number of atoms in domain:       8
 Number of atomic orbitals:     976
 Number of atoms for local DF:    8
 Number of fitting functions:  2888 (100.00%)
 Warning: drop high-lying PAOs                     8
 Number of occupied orbitals:    76
 Number of virtual  orbitals:   892
 Number of Cholesky vectors:      9
 MP2 energy in ED [au]:          -0.093344846570
 Number of occupied LNOs:        57  (75.00%)
 Number of virtual  LNOs:       269  (30.16%)
dropped smallnorm     2     3   6.28415934E-06
dropped smallnorm    13    15   2.63815959E-05
dropped smallnorm    13    16   1.93101745E-05
dropped smallnorm    13    17   2.25439129E-05
 tol*100>norm                    43  5.037616235624249E-003
 tol*100>norm                    44  3.325851460918875E-003
 tol*100>norm                    45  2.949377169649790E-003
 tol*100>norm                    46  3.693965163011459E-003
 tol*100>norm                    47  4.693151542217420E-003
dropped smallnorm   120   125   6.28647827E-06
dropped smallnorm   131   137   2.63872401E-05
dropped smallnorm   131   138   1.93148397E-05
dropped smallnorm   131   139   2.25277759E-05
 tol*100>norm                   165  5.034401269073866E-003
 tol*100>norm                   166  3.325104085133590E-003
 tol*100>norm                   167  2.949180591382420E-003
 tol*100>norm                   168  3.691647645732193E-003
 tol*100>norm                   169  4.690776223400722E-003
dropped smallnorm   238   247   7.16368023E-06
dropped smallnorm   249   259   2.53286630E-05
dropped smallnorm   249   260   2.59497860E-05
dropped smallnorm   249   261   2.96108651E-05
 tol*100>norm                   287  2.852177242607680E-003
 tol*100>norm                   288  3.594417892704337E-003
 tol*100>norm                   289  3.233240253906379E-003
 tol*100>norm                   290  3.104983639857314E-003
 tol*100>norm                   291  2.988776961589323E-003
dropped smallnorm   356   369   7.16468564E-06
dropped smallnorm   367   381   2.59596905E-05
dropped smallnorm   367   382   2.53327909E-05
dropped smallnorm   367   383   2.96081943E-05
 tol*100>norm                   409  3.107048743152772E-003
 tol*100>norm                   410  3.594231801319089E-003
 tol*100>norm                   411  2.569290046373701E-003
 tol*100>norm                   412  2.852142599596571E-003
 tol*100>norm                   413  3.647532333331314E-003
dropped smallnorm   474   491   6.28973553E-06
dropped smallnorm   485   503   1.93219484E-05
dropped smallnorm   485   504   2.64043785E-05
dropped smallnorm   485   505   2.25393001E-05
 tol*100>norm                   531  3.693766827548358E-003
 tol*100>norm                   532  3.325588042968341E-003
 tol*100>norm                   533  3.786199141365344E-003
 tol*100>norm                   534  5.026336140825018E-003
 tol*100>norm                   535  3.845034427252719E-003
dropped smallnorm   592   613   7.16521149E-06
dropped smallnorm   603   625   2.59493230E-05
dropped smallnorm   603   626   2.53323711E-05
dropped smallnorm   603   627   2.96167425E-05
 tol*100>norm                   653  3.106845562200015E-003
 tol*100>norm                   654  3.592709953046091E-003
 tol*100>norm                   655  2.568296904638584E-003
 tol*100>norm                   656  2.850602004615073E-003
 tol*100>norm                   657  3.648966584916593E-003
dropped smallnorm   710   735   6.28992270E-06
dropped smallnorm   721   747   1.93196638E-05
dropped smallnorm   721   748   2.64043849E-05
dropped smallnorm   721   749   2.25430948E-05
 tol*100>norm                   775  3.692491409477668E-003
 tol*100>norm                   776  3.323821857934259E-003
 tol*100>norm                   777  3.784590323469179E-003
 tol*100>norm                   778  5.025386543593484E-003
 tol*100>norm                   779  3.846550528729327E-003
dropped smallnorm   828   857   7.16246448E-06
dropped smallnorm   839   869   2.53336629E-05
dropped smallnorm   839   870   2.59353534E-05
dropped smallnorm   839   871   2.96233452E-05
 tol*100>norm                   897  2.849235132621162E-003
 tol*100>norm                   898  3.595661109793010E-003
 tol*100>norm                   899  3.234338215471810E-003
 tol*100>norm                   900  3.106442879424924E-003
 tol*100>norm                   901  2.990524739403675E-003
 Number of Cholesky vectors:      8
 MP2 energy in LIS [au]:         -0.090078489373
 Correction for frozen LNO [au]: -0.003266357197     (3.499%)
 Number of NAFs:               1128  (39.06%)
 CPU time [min]:  8506.964                   Wall time [min]:   308.853
 

 Direct DF-CCSD(T) calculation
 
 Convergence criterion:  1.0E-05
 
 Number of occupied/virtual/auxiliary orbitals:    57   269  1128
   5786.71 MB is the minimal memory requirement for (T)
   3794.84 MB is the minimal memory requirement for CCSD
 
 MP2 correlation energy [au]:       -4.237505422989
 
 LMP2 domain correlation energy contribution [au]:       -0.090076060193
 
 CPU time [min]:  8509.024                   Wall time [min]:   309.242
 
 
 Starting CCSD iterations...
 
                     Residual norm       Correlation Energy
 Iteration  1        1.117007149562       -3.195471781024
 Iteration  2        0.824998404356       -3.603031488797
 Iteration  3        0.123516037355       -3.650419533224
 Iteration  4        0.067611850792       -3.655322429332
 Iteration  5        0.034995998018       -3.647507856225
 Iteration  6        0.016434766532       -3.644104899642
 Iteration  7        0.009789876096       -3.645424271025
 Iteration  8        0.005025782079       -3.646369768618
 Iteration  9        0.002881343056       -3.646234811910
 Iteration 10        0.001647166264       -3.646119556800
 Iteration 11        0.000989412864       -3.646209445287
 Iteration 12        0.000557767671       -3.646185486867
 Iteration 13        0.000321599653       -3.646132086030
 Iteration 14        0.000185947115       -3.646142401354
 Iteration 15        0.000107912436       -3.646160497369
 Iteration 16        0.000061823639       -3.646159120139
 Iteration 17        0.000034710678       -3.646153743130
 
 CCSD iteration has converged in 17 steps.
    23717.67 MB memory was utilized by CCSD
 
 T1 diagnostic:      3.794E-02            D1 diagnostic:      1.309E-01
 
 T1 contribution [au]:                         0.000000000000
 CCSD correlation energy [au]:                -0.079397376668
 
 CPU time [min]:  9231.592                   Wall time [min]:   338.457
 
 Calculation of (T) correction...
 
 Laplace threshold, nquadmin:  1.00E-02   3
 Number of quadrature points:    3
 
    14999.79 MB memory is utilized for (T)

 0%       25%       50%       75%       100%
 |---------|---------|---------|---------| 
 
 (T) correction [au]:                   -0.010948029737
 CCSD(T) correlation energy [au]:       -0.090345406405
 
 CPU time [min]:  9770.351                   Wall time [min]:   354.281
 
 **********************************************************************
 Dimensions of the extended domains:    Minimum / Average / Maximum
 
 Number of atoms in domain:                   8       8.0         8
 Number of atomic orbitals:                 976     976.0       976
 Number of fitting functions:              2888    2888.0      2888
 Number of occupied localized MOs:           23      46.1        76
 Number of PAOs:                            892     892.0       892
 Number of occupied LNOs:                    10      25.2        57
 Number of virtual  LNOs:                    58     102.4       269
 Number of NAFs:                            235     426.0      1128
 
 **********************************************************************
 Distant (and weak) pair contributions, corrections
 
 Sum of pair energies [au]:                    -0.002285276810    (0.026%)
 Sum of energy corrections [au]:               -0.127203464612    (1.447%)
 Pair energies + LNO corrections [au]:         -0.129488741422
 Sum of LMP2 contributions [au]:               -8.792225268153
 
 **********************************************************************
  Time of manipulations in the EDs:      max CPU/Wall [s]  all CPU/Wall [min]
 
 PD construction & multipole pair E     917.80    26.88    15.30     0.45
 Construct MO basis of the ED            12.36     0.35    12.55     0.35
 (mu,nu|P) evaluation & trf 2 (ai|P)   1320.31    40.61  1169.53    33.79
 Evaluate MP2 energy of the ED          175.76     4.90   136.45     3.80
 Transformations to the LNO basis        90.88     2.54    54.48     1.52
 Build W_PQ (Jai or Jpi part)             8.39     0.23     4.90     0.14
 Evaluate MP2 energy of the LIS          14.54     0.41     3.21     0.09
 (mu,nu|P) evaluation & trf 2 J(abQ)   3343.56   144.40  1811.84    78.84
 Total of the above for all EDs        4965.80   193.44  3192.96   118.53
 
 **********************************************************************
 Maximum memory requirement [MB]:       
 
 PD construction & multipole pair E         73.8
 AO integral evaluation in the EDs        6191.0
 (mu,nu|P) evaluation & trf 2 (aI|P)     11110.8
 Evaluate MP2 energy in the EDs           3623.5
 Transformation to the LNO basis          1640.2
 (mu,nu|P) to Jab transformation          7300.8
 Evaluate MP2 energy in the LIS           1703.5
 Minimum requirement for LIS CCSD         3794.8
 Actually allocated  for LIS CCSD        23717.7
 Minimum requirement for LIS (T)          5786.8
 Actually allocated  for LIS (T)         14999.8
 
 ======================================================================
 ======================================================================
 
 
 
 ======================================================================
 ======================================================================
 
 Final local CC results:
 
 Minimum number of correlated electrons:        20       ( 13.2%)
 Maximum number of correlated electrons:       114       ( 75.0%)
 Average number of correlated electrons:        50.3     ( 33.1%)
 Minimum number of correlated orbitals:         68       (  7.0%)
 Maximum number of correlated orbitals:        326       ( 33.4%)
 Average number of correlated orbitals:        127.6     ( 13.1%)
 
 CPU time for integral calculations [min]:                 33.616
 Wall time for integral calculations [min]:                 2.927
 
 CPU time for SCF calculation [min]:                      102.913
 Wall time for SCF calculation [min]:                       2.955
 
 CPU time for orbital localization [min]:                   0.418
 Wall time for orbital localization [min]:                  0.093
 
 CPU time for integral transformations [min]:            3254.582
 Wall time for integral transformations [min]:            120.474
 
 Reference energy [au]:                                 -1569.523813458223
 
 LMP2 correlation energy [au]:                             -8.792225268153
 Total LMP2 energy [au]:                                -1578.316038726377
 
 Total MP2 correction for dropped NAFs [au]:               -0.000330522077
 Total MP2 correction [au]:                                -0.129819263499
 
 CPU time for CCSD calculations [min]:                   3918.438
 Total CPU time for CCSD [min]:                          7309.967
 Wall time for CCSD calculations [min]:                   157.237
 Total wall time for CCSD [min]:                          283.686
 
 CCSD correlation energy [au]:                             -7.605932615882
 Total CCSD energy [au]:                                -1577.129746074105
 CCSD correlation energy + 0.5 MP2 corrections [au]:       -7.670842247632
 Total LNO-CCSD energy with MP2 corrections [au]:       -1577.194655705855
 
 CPU time for (T) corrections [min]:                     2597.337
 Total CPU time for CCSD(T) [min]:                       9907.304
 Wall time for (T) corrections [min]:                      76.570
 Total wall time for CCSD(T) [min]:                       360.256
 
 Total (T) correlation energy contribution [au]:           -0.337650502975
 Total (T) correlation energy+0.5 MP2 correction [au]:     -0.402560134724
 CCSD(T) correlation energy [au]:                          -7.943583118857
 Total CCSD(T) energy [au]:                             -1577.467396577080
 CCSD(T) correlation energy + MP2 corrections [au]:        -8.073402382356
 Total LNO-CCSD(T) energy with MP2 corrections [au]:    -1577.597215840579
 
 ======================================================================
 ======================================================================
 
 ************************ 2022-12-23 01:36:22 *************************
                      Normal termination of mrcc.
 **********************************************************************
