 vasp.6.3.0 20Jan22 (build Apr  1 2022 16:44:48) complex                         
 executed on        HPECrayEX_GCC date 2022.08.15  21:31:29
 running  512 mpi-ranks, with    1 threads/rank
 distrk:  each k-point on  256 cores,    2 groups
 distr:  one band on NCORE=   4 cores,   64 groups


--------------------------------------------------------------------------------------------------------


 INCAR:
   SYSTEM = MgO-rocksalt
   ISMEAR = 0
   SIGMA = 0.05
   EDIFF = 1E-6
   ALGO = ALL
   ISTART = 0
   IBRION = -1
   NSW = 0
   ISYM = 2
   DIPOL = 0.5 0.5 0.5
   IDIPOL = 3
   LDIPOL = .TRUE.
   GGA = RE
   LUSE_VDW = .TRUE.
   AGGAC = 0.0
   ENCUT = 520
   PREC = Accurate
   LASPH = .TRUE.
   LREAL = Auto
   ISPIN = 1
   NELM = 200
   NELMIN = 8
   NCORE = 4
   KPAR = 2
   LWAVE = .FALSE.
   LCHARG = .FALSE.

 POTCAR:    PAW_PBE Ag 02Apr2005                  
 -----------------------------------------------------------------------------
|                                                                             |
|               ----> ADVICE to this user running VASP <----                  |
|                                                                             |
|     You have switched on vdW-DFT.                                           |
|     This routine was written and supplied by Jiri Klimes. We recommend      |
|     that you carefully read and cite the following publications:            |
|       J. Klimes, D.R. Bowler, A. Michelides                                 |
|          J. Phys.: Cond Matt. 22 022201 (2010)                              |
|       J. Klimes, D.R. Bowler, A. Michelides                                 |
|          Phys. Rev. B. 83, 195131 (2011)                                    |
|     and references therein.                                                 |
|                                                                             |
 -----------------------------------------------------------------------------

 POTCAR:    PAW_PBE Ag 02Apr2005                  
   SHA256 =  6550cfa3543261e132c169e1b98a529204624d72be14e2da2e0242bcb74a174d Ag/POTCAR             
   COPYR  = (c) Copyright 02Apr2005 Georg Kresse                                                    
   COPYR  = This file is part of the software VASP. Any use, copying, and all other rights are regul
   COPYR  = If you do not have a valid VASP license, you may not use, copy or distribute this file. 
   VRHFIN =Ag : s1 d10                                                                              
   LEXCH  = PE                                                                                      
   EATOM  =  1037.2675 eV,   76.2370 Ry                                                             
                                                                                                    
   TITEL  = PAW_PBE Ag 02Apr2005                                                                    
   LULTRA =        F    use ultrasoft PP ?                                                          
   IUNSCR =        1    unscreen: 0-lin 1-nonlin 2-no                                               
   RPACOR =    2.000    partial core radius                                                         
   POMASS =  107.868; ZVAL   =   11.000    mass and valenz                                          
   RCORE  =    2.500    outmost cutoff radius                                                       
   RWIGS  =    2.840; RWIGS  =    1.503    wigner-seitz radius (au A)                               
   ENMAX  =  249.844; ENMIN  =  187.383 eV                                                          
   ICORE  =        3    local potential                                                             
   LCOR   =        T    correct aug charges                                                         
   LPAW   =        T    paw PP                                                                      
   EAUG   =  412.496                                                                                
   DEXC   =    0.000                                                                                
   RMAX   =    2.560    core radius for proj-oper                                                   
   RAUG   =    1.300    factor for augmentation sphere                                              
   RDEP   =    2.576    radius for radial grids                                                     
   RDEPT  =    2.072    core radius for aug-charge                                                  
                                                                                                    
   Atomic configuration                                                                             
   12 entries                                                                                       
     n  l   j            E        occ.                                                              
     1  0  0.50    -25324.9161   2.0000                                                             
     2  0  0.50     -3728.5341   2.0000                                                             
     2  1  1.50     -3344.0404   6.0000                                                             
     3  0  0.50      -683.5581   2.0000                                                             
     3  1  1.50      -557.3225   6.0000                                                             
     3  2  2.50      -358.3853  10.0000                                                             
     4  0  0.50       -95.0341   2.0000                                                             
     4  1  1.50       -58.5511   6.0000                                                             
     4  2  2.50        -7.4440  10.0000                                                             
     5  0  0.50        -4.4045   1.0000                                                             
     5  1  0.50        -1.3606   0.0000                                                             
     4  3  2.50        -1.3606   0.0000                                                             
   Description                                                                                      
     l       E           TYP  RCUT    TYP  RCUT                                                     
     2     -7.4439781     23  2.400                                                                 
     2     -8.8045607     23  2.400                                                                 
     0     -4.4044681     23  2.400                                                                 
     0      1.9520038     23  2.400                                                                 
     1     -1.3605826     23  2.500                                                                 
     1     27.2116520     23  2.500                                                                 
     3     -4.0817478     23  2.400                                                                 
  local pseudopotential read in
  partial core-charges read in
  partial kinetic energy density read in
  atomic valenz-charges read in
  non local Contribution for L=           2  read in
    real space projection operators read in
  non local Contribution for L=           2  read in
    real space projection operators read in
  non local Contribution for L=           0  read in
    real space projection operators read in
  non local Contribution for L=           0  read in
    real space projection operators read in
  non local Contribution for L=           1  read in
    real space projection operators read in
  non local Contribution for L=           1  read in
    real space projection operators read in
    PAW grid and wavefunctions read in

   number of l-projection  operators is LMAX  =           6
   number of lm-projection operators is LMMAX =          18

 -----------------------------------------------------------------------------
|                                                                             |
|               ----> ADVICE to this user running VASP <----                  |
|                                                                             |
|     You have a (more or less) 'small supercell' and for smaller cells       |
|     it is recommended to use the reciprocal-space projection scheme!        |
|     The real-space optimization is not efficient for small cells and it     |
|     is also less accurate ...                                               |
|     Therefore, set LREAL=.FALSE. in the INCAR file.                         |
|                                                                             |
 -----------------------------------------------------------------------------

 Optimization of the real space projectors (new method)

 maximal supplied QI-value         = 15.12
 optimisation between [QCUT,QGAM] = [ 11.64, 23.28] = [ 37.95,151.78] Ry 
 Optimized for a Real-space Cutoff    1.45 Angstroem

   l    n(q)    QCUT    max X(q) W(low)/X(q) W(high)/X(q)  e(spline) 
   2      9    11.641    53.897    0.22E-03    0.42E-04    0.28E-06
   2      9    11.641    52.416    0.23E-03    0.44E-04    0.29E-06
   0     10    11.641   122.045    0.51E-04    0.25E-04    0.16E-06
   0     10    11.641    73.629    0.49E-04    0.24E-04    0.16E-06
   1     10    11.641    15.255    0.99E-04    0.55E-04    0.11E-06
   1     10    11.641     9.562    0.81E-04    0.47E-04    0.95E-07
 -----------------------------------------------------------------------------
|                                                                             |
|               ----> ADVICE to this user running VASP <----                  |
|                                                                             |
|     You enforced a specific xc type in the INCAR file but a different       |
|     type was found in the POTCAR file.                                      |
|     I HOPE YOU KNOW WHAT YOU ARE DOING!                                     |
|                                                                             |
 -----------------------------------------------------------------------------

  PAW_PBE Ag 02Apr2005                  :
 energy of atom  1       EATOM=-1037.2675
 kinetic energy error for atom=    0.0047 (will be added to EATOM!!)


 POSCAR: Ag
  positions in direct lattice
  No initial velocities read in
 exchange correlation table for  LEXCH =       40
   RHO(1)=    0.500       N(1)  =     2000
   RHO(2)=  100.500       N(2)  =     4000



--------------------------------------------------------------------------------------------------------


 ion  position               nearest neighbor table
   1  0.450  0.450  0.726-   2 2.56
   2  0.450  0.450  0.610-   1 2.56

  LATTYP: Found a simple tetragonal cell.
 ALAT       =    21.1388521970
 C/A-ratio  =     1.0461251639
  
  Lattice vectors:
  
 A1 = (  21.1388521970,   0.0000000000,   0.0000000000)
 A2 = (   0.0000000000,  21.1388521970,   0.0000000000)
 A3 = (   0.0000000000,   0.0000000000,  22.1138852197)


Analysis of symmetry for initial positions (statically):
=====================================================================
 Subroutine PRICEL returns:
 Original cell was already a primitive cell.
 

 Routine SETGRP: Setting up the symmetry group for a 
 simple tetragonal supercell.


 Subroutine GETGRP returns: Found 16 space group operations
 (whereof  2 operations were pure point group operations)
 out of a pool of 16 trial point group operations.


The static configuration has the point symmetry C_1h.
 The point group associated with its full space group is D_4h.


Analysis of symmetry for dynamics (positions and initial velocities):
=====================================================================
 Subroutine PRICEL returns:
 Original cell was already a primitive cell.
 

 Routine SETGRP: Setting up the symmetry group for a 
 simple tetragonal supercell.


 Subroutine GETGRP returns: Found 16 space group operations
 (whereof  2 operations were pure point group operations)
 out of a pool of 16 trial point group operations.


The dynamic configuration has the point symmetry C_1h.
 The point group associated with its full space group is D_4h.


 Subroutine INISYM returns: Found 16 space group operations
 (whereof  2 operations are pure point group operations),
 and found     1 'primitive' translations


----------------------------------------------------------------------------------------

                                     Primitive cell                                     

  volume of cell :    9881.6133

  direct lattice vectors                    reciprocal lattice vectors
    21.138852197  0.000000000  0.000000000     0.047306258  0.000000000  0.000000000
     0.000000000 21.138852197  0.000000000     0.000000000  0.047306258  0.000000000
     0.000000000  0.000000000 22.113885220     0.000000000  0.000000000  0.045220457

  length of vectors
    21.138852197 21.138852197 22.113885220     0.047306258  0.047306258  0.045220457

  position of ions in fractional coordinates (direct lattice)
     0.449999988  0.450000018  0.725800575
     0.449999988  0.450000018  0.610040178

  ion indices of the primitive-cell ions
   primitive index   ion index
                 1           1
                 2           2

----------------------------------------------------------------------------------------



 KPOINTS: KPOINTS created by Atomic Simulation Env

Automatic generation of k-mesh.
 Grid dimensions read from file:
 generate k-points for:    1    1    1

 Generating k-lattice:

  Cartesian coordinates                     Fractional coordinates (reciprocal lattice)
     0.047306258  0.000000000  0.000000000     1.000000000  0.000000000  0.000000000
     0.000000000  0.047306258  0.000000000     0.000000000  1.000000000  0.000000000
     0.000000000  0.000000000  0.045220457     0.000000000  0.000000000  1.000000000

  Length of vectors
     0.047306258  0.047306258  0.045220457

  Shift w.r.t. Gamma in fractional coordinates (k-lattice)
     0.000000000  0.000000000  0.000000000

 
 Subroutine IBZKPT returns following result:
 ===========================================
 
 Found      1 irreducible k-points:
 
 Following reciprocal coordinates:
            Coordinates               Weight
  0.000000  0.000000  0.000000      1.000000
 
 Following cartesian coordinates:
            Coordinates               Weight
  0.000000  0.000000  0.000000      1.000000
 


--------------------------------------------------------------------------------------------------------




 Dimension of arrays:
   k-points           NKPTS =      1   k-points in BZ     NKDIM =      1   number of bands    NBANDS=     64
   number of dos      NEDOS =    301   number of ions     NIONS =      2
   non local maximal  LDIM  =      6   non local SUM 2l+1 LMDIM =     18
   total plane-waves  NPLWV = ******
   max r-space proj   IRMAX =   5559   max aug-charges    IRDMAX=  21597
   dimension x,y,z NGX =   160 NGY =  160 NGZ =  168
   dimension x,y,z NGXF=   320 NGYF=  320 NGZF=  336
   support grid    NGXF=   320 NGYF=  320 NGZF=  336
   ions per type =               2
   NGX,Y,Z   is equivalent  to a cutoff of  12.58, 12.58, 12.63 a.u.
   NGXF,Y,Z  is equivalent  to a cutoff of  25.17, 25.17, 25.26 a.u.

 SYSTEM =  MgO-rocksalt                            
 POSCAR =  Ag                                      

 Startparameter for this run:
   NWRITE =      2    write-flag & timer
   PREC   = accura    normal or accurate (medium, high low for compatibility)
   ISTART =      0    job   : 0-new  1-cont  2-samecut
   ICHARG =      2    charge: 1-file 2-atom 10-const
   ISPIN  =      1    spin polarized calculation?
   LNONCOLLINEAR =      F non collinear calculations
   LSORBIT =      F    spin-orbit coupling
   INIWAV =      1    electr: 0-lowe 1-rand  2-diag
   LASPH  =      T    aspherical Exc in radial PAW
 Electronic Relaxation 1
   ENCUT  =  520.0 eV  38.22 Ry    6.18 a.u.  39.30 39.30 41.12*2*pi/ulx,y,z
   ENINI  =  520.0     initial cutoff
   ENAUG  =  412.5 eV  augmentation charge cutoff
   NELM   =    200;   NELMIN=  8; NELMDL= -5     # of ELM steps 
   EDIFF  = 0.1E-05   stopping-criterion for ELM
   LREAL  =      T    real-space projection
   NLSPLINE    = F    spline interpolate recip. space projectors
   LCOMPAT=      F    compatible to vasp.4.4
   GGA_COMPAT  = T    GGA compatible to vasp.4.4-vasp.4.6
   LMAXPAW     = -100 max onsite density
   LMAXMIX     =    2 max onsite mixed and CHGCAR
   VOSKOWN=      0    Vosko Wilk Nusair interpolation
   ROPT   =   -0.00025
 Ionic relaxation
   EDIFFG = 0.1E-04   stopping-criterion for IOM
   NSW    =      0    number of steps for IOM
   NBLOCK =      1;   KBLOCK =      1    inner block; outer block 
   IBRION =     -1    ionic relax: 0-MD 1-quasi-New 2-CG
   NFREE  =      0    steps in history (QN), initial steepest desc. (CG)
   ISIF   =      2    stress and relaxation
   IWAVPR =     10    prediction:  0-non 1-charg 2-wave 3-comb
   ISYM   =      2    0-nonsym 1-usesym 2-fastsym
   LCORR  =      T    Harris-Foulkes like correction to forces

   POTIM  = 0.5000    time-step for ionic-motion
   TEIN   =    0.0    initial temperature
   TEBEG  =    0.0;   TEEND  =   0.0 temperature during run
   SMASS  =  -3.00    Nose mass-parameter (am)
   estimated Nose-frequenzy (Omega)   =  0.10E-29 period in steps = 0.13E+47 mass=  -0.102E-25a.u.
   SCALEE = 1.0000    scale energy and forces
   NPACO  =    256;   APACO  = 10.0  distance and # of slots for P.C.
   PSTRESS=    0.0 pullay stress

  Mass of Ions in am
   POMASS = 107.87
  Ionic Valenz
   ZVAL   =  11.00
  Atomic Wigner-Seitz radii
   RWIGS  =  -1.00
  virtual crystal weights 
   VCA    =   1.00
   NELECT =      22.0000    total number of electrons
   NUPDOWN=      -1.0000    fix difference up-down

 DOS related values:
   EMIN   =  10.00;   EMAX   =-10.00  energy-range for DOS
   EFERMI =   0.00
   ISMEAR =     0;   SIGMA  =   0.05  broadening in eV -4-tet -1-fermi 0-gaus

 Electronic relaxation 2 (details)
   IALGO  =     58    algorithm
   LDIAG  =      T    sub-space diagonalisation (order eigenvalues)
   LSUBROT=      F    optimize rotation matrix (better conditioning)
   TURBO    =      0    0=normal 1=particle mesh
   IRESTART =      0    0=no restart 2=restart with 2 vectors
   NREBOOT  =      0    no. of reboots
   NMIN     =      0    reboot dimension
   EREF     =   0.00    reference energy to select bands
   IMIX   =      4    mixing-type and parameters
     AMIX     =   0.40;   BMIX     =  1.00
     AMIX_MAG =   1.60;   BMIX_MAG =  1.00
     AMIN     =   0.10
     WC   =   100.;   INIMIX=   1;  MIXPRE=   1;  MAXMIX= -45

 Intra band minimization:
   WEIMIN = 0.0000     energy-eigenvalue tresh-hold
   EBREAK =  0.39E-08  absolut break condition
   DEPER  =   0.30     relativ break condition  

   TIME   =   0.40     timestep for ELM

  volume/ion in A,a.u.               =    4940.81     33342.21
  Fermi-wavevector in a.u.,A,eV,Ry     =   0.213767  0.403960  0.621734  0.045696
  Thomas-Fermi vector in A             =   0.985879

 Write flags
   LWAVE        =      F    write WAVECAR
   LDOWNSAMPLE  =      F    k-point downsampling of WAVECAR
   LCHARG       =      F    write CHGCAR
   LVTOT        =      F    write LOCPOT, total local potential
   LVHAR        =      F    write LOCPOT, Hartree potential only
   LELF         =      F    write electronic localiz. function (ELF)
   LORBIT       =      0    0 simple, 1 ext, 2 COOP (PROOUT), +10 PAW based schemes


 Dipole corrections
   LMONO  =      F    monopole corrections only (constant potential shift)
   LDIPOL =      T    correct potential (dipole corrections)
   IDIPOL =      3    1-x, 2-y, 3-z, 4-all directions 
   EPSILON=  1.0000000 bulk dielectric constant

 Exchange correlation treatment:
   GGA     =    RE    GGA type
   LEXCH   =    40    internal setting for exchange type
   LIBXC   =     F    Libxc                    
   VOSKOWN =     0    Vosko Wilk Nusair interpolation
   LHFCALC =     F    Hartree Fock is set to
   LHFONE  =     F    Hartree Fock one center treatment
   AEXX    =    0.0000 exact exchange contribution

 vdW DFT:
   LUSE_VDW   =     T    switch on vdW DFT
   Zab_VDW    =-.8491    correlation parameter
   PARAM1     =0.1234
   PARAM2     =1.0000
   PARAM3     =0.0000
   -- rVV10 --
   BPARAM     = 6.3000
   CPARAM     = 0.0093

 Linear response parameters
   LEPSILON=     F    determine dielectric tensor
   LRPA    =     F    only Hartree local field effects (RPA)
   LNABLA  =     F    use nabla operator in PAW spheres
   LVEL    =     F    velocity operator in full k-point grid
   CSHIFT  =0.1000    complex shift for real part using Kramers Kronig
   OMEGAMAX=  -1.0    maximum frequency
   DEG_THRESHOLD= 0.2000000E-02 threshold for treating states as degnerate
   RTIME   =   -0.100 relaxation time in fs
  (WPLASMAI=    0.000 imaginary part of plasma frequency in eV, 0.658/RTIME)
   DFIELD  = 0.0000000 0.0000000 0.0000000 field for delta impulse in time

  Optional k-point grid parameters
   LKPOINTS_OPT  =     F    use optional k-point grid
   KPOINTS_OPT_MODE=     1    mode for optional k-point grid

 Orbital magnetization related:
   ORBITALMAG=     F  switch on orbital magnetization
   LCHIMAG   =     F  perturbation theory with respect to B field
   DQ        =  0.001000  dq finite difference perturbation B field
   LLRAUG    =     F  two centre corrections for induced B field



--------------------------------------------------------------------------------------------------------


 Static calculation
 charge density and potential will be updated during run
 non-spin polarized calculation
 Conjugate gradient for all bands (Freysoldt, et al. PRB 79, 241103 (2009))
 preconditioned conjugated gradient                                        
 perform sub-space diagonalisation
    before iterative eigenvector-optimisation
 modified Broyden-mixing scheme, WC =      100.0
 initial mixing is a Kerker type mixing with AMIX =  0.4000 and BMIX =      1.0000
 Hartree-type preconditioning will be used
 using additional bands           53
 real space projection scheme for non local part
 use partial core corrections
 no Harris-corrections to forces 
 use gradient corrections 
 use of overlap-Matrix (Vanderbilt PP)
 Gauss-broadening in eV      SIGMA  =   0.05


--------------------------------------------------------------------------------------------------------


  energy-cutoff  :      520.00
  volume of cell :     9881.61
      direct lattice vectors                 reciprocal lattice vectors
    21.138852197  0.000000000  0.000000000     0.047306258  0.000000000  0.000000000
     0.000000000 21.138852197  0.000000000     0.000000000  0.047306258  0.000000000
     0.000000000  0.000000000 22.113885220     0.000000000  0.000000000  0.045220457

  length of vectors
    21.138852197 21.138852197 22.113885220     0.047306258  0.047306258  0.045220457



 k-points in units of 2pi/SCALE and weight: KPOINTS created by Atomic Simulation Env
   0.00000000  0.00000000  0.00000000       1.000

 k-points in reciprocal lattice and weights: KPOINTS created by Atomic Simulation Env
   0.00000000  0.00000000  0.00000000       1.000

 position of ions in fractional coordinates (direct lattice) 
   0.44999999  0.45000002  0.72580057
   0.44999999  0.45000002  0.61004018

 position of ions in cartesian coordinates  (Angst):
   9.51248324  9.51248387 16.05027061
   9.51248324  9.51248387 13.49035848



--------------------------------------------------------------------------------------------------------


 k-point   1 :   0.0000 0.0000 0.0000  plane waves:  265979

 maximum and minimum number of plane-waves per node :     66495    66494

 maximum number of plane-waves:    265979
 maximum index in each direction: 
   IXMAX=   39   IYMAX=   39   IZMAX=   41
   IXMIN=  -39   IYMIN=  -39   IZMIN=  -41


 real space projection operators:
  total allocation   :       1507.36 KBytes
  max/ min on nodes  :        380.11        375.19


 parallel 3D FFT for wavefunctions:
    minimum data exchange during FFTs selected (reduces bandwidth)
 parallel 3D FFT for charge:
    minimum data exchange during FFTs selected (reduces bandwidth)


 total amount of memory used by VASP MPI-rank0   125759. kBytes
=======================================================================

   base      :      30000. kBytes
   nonlr-proj:        655. kBytes
   fftplans  :      38424. kBytes
   grid      :      53473. kBytes
   one-center:         15. kBytes
   wavefun   :       3192. kBytes

     INWAV:  cpu time      0.0000: real time      0.0000
 Broyden mixing: mesh for mixing (old mesh)
   NGX = 79   NGY = 79   NGZ = 83
  (NGX  =320   NGY  =320   NGZ  =336)
  gives a total of 518003 points

 initial charge density was supplied:
 charge density of overlapping atoms calculated
 number of electron      22.0000000 magnetization 
 keeping initial charge density in first step


--------------------------------------------------------------------------------------------------------


 Maximum index for non-local projection operator         1365
 Maximum index for augmentation-charges            0 (set IRDMAX)


--------------------------------------------------------------------------------------------------------


 First call to EWALD:  gamma=   0.083
 Maximum number of real-space cells 3x 3x 3
 Maximum number of reciprocal cells 3x 3x 3

    FEWALD:  cpu time      0.0007: real time      0.0007


--------------------------------------- Iteration      1(   1)  ---------------------------------------


vdW kernel read from vdw_kernel.bindat
  0.0000  0.2424  0.5071  0.7962  1.1119  1.4567  1.8333  2.2446  2.6937  3.1842
  3.7199  4.3049  4.9438  5.6415  6.4036  7.2358  8.1446  9.1372 10.2212 11.4050
 12.6979 14.1099 15.6519 17.3360 19.1751 21.1837 23.3773 25.7729 28.3892 31.2465
 34.3669 37.7748 41.4965 45.5611 50.0000

    POTLOK:  cpu time      2.0862: real time      2.1171
    SETDIJ:  cpu time      0.1198: real time      0.1199
    TRIAL :  cpu time      0.4347: real time      0.4353
    CORREC:  cpu time      0.0008: real time      0.0008
    --------------------------------------------
      LOOP:  cpu time      2.6440: real time      2.6761

 eigenvalue-minimisations  :   128
 total energy-change (2. order) : 0.1653068E+03  (-0.3778726E+03)
 number of electron      22.0000000 magnetization 
 augmentation part       22.0000000 magnetization 

 DIPCOR: dipole corrections for dipol
 direction  3 min pos     1,
 dipolmoment           0.000000      0.000000     -0.000090 electrons x Angstroem
 Tr[quadrupol]     -3979.744761

 energy correction for charged system         0.000000 eV
 dipol+quadrupol energy correction           -0.000000 eV
 added-field ion interaction          0.000145 eV  (added to PSCEN)


 Free energy of the ion-electron system (eV)
  ---------------------------------------------------
  alpha Z        PSCENC =         0.34445265
  Ewald energy   TEWEN  =       222.34744481
  -Hartree energ DENC   =     -2204.32312155
  -exchange      EXHF   =         0.00000000
  -V(xc)+E(xc)   XCENC  =       -27.48457054
  PAW double counting   =      2013.54339418    -1915.97390902
  entropy T*S    EENTRO =        -0.03382560
  eigenvalues    EBANDS =        -6.35471188
  atomic energy  EATOM  =      2083.24164537
  ---------------------------------------------------
  free energy    TOTEN  =       165.30679843 eV

  energy without entropy =      165.34062403  energy(sigma->0) =      165.32371123


--------------------------------------------------------------------------------------------------------




--------------------------------------- Iteration      1(   2)  ---------------------------------------


    TRIAL :  cpu time      0.9386: real time      0.9387
    CORREC:  cpu time      0.0002: real time      0.0002
    --------------------------------------------
      LOOP:  cpu time      0.9446: real time      0.9523

 eigenvalue-minimisations  :   256
 total energy-change (2. order) :-0.1523881E+03  (-0.1516885E+03)
 number of electron      22.0000000 magnetization 
 augmentation part       22.0000000 magnetization 

 DIPCOR: dipole corrections for dipol
 direction  3 min pos     1,
 dipolmoment           0.000000      0.000000     -0.000090 electrons x Angstroem
 Tr[quadrupol]     -3979.744761

 energy correction for charged system         0.000000 eV
 dipol+quadrupol energy correction           -0.000000 eV
 added-field ion interaction          0.000145 eV  (added to PSCEN)


 Free energy of the ion-electron system (eV)
  ---------------------------------------------------
  alpha Z        PSCENC =         0.34445265
  Ewald energy   TEWEN  =       222.34744481
  -Hartree energ DENC   =     -2204.32312155
  -exchange      EXHF   =         0.00000000
  -V(xc)+E(xc)   XCENC  =       -27.48457054
  PAW double counting   =      2013.54339418    -1915.97390902
  entropy T*S    EENTRO =        -0.00000000
  eigenvalues    EBANDS =      -158.77665170
  atomic energy  EATOM  =      2083.24164537
  ---------------------------------------------------
  free energy    TOTEN  =        12.91868420 eV

  energy without entropy =       12.91868420  energy(sigma->0) =       12.91868420


--------------------------------------------------------------------------------------------------------




--------------------------------------- Iteration      1(   3)  ---------------------------------------


    TRIAL :  cpu time      0.4272: real time      0.4272
    CORREC:  cpu time      0.0004: real time      0.0004
    --------------------------------------------
      LOOP:  cpu time      0.4320: real time      0.4399

 eigenvalue-minimisations  :   128
 total energy-change (2. order) :-0.8273455E+01  (-0.8273455E+01)
 number of electron      22.0000000 magnetization 
 augmentation part       22.0000000 magnetization 

 DIPCOR: dipole corrections for dipol
 direction  3 min pos     1,
 dipolmoment           0.000000      0.000000     -0.000090 electrons x Angstroem
 Tr[quadrupol]     -3979.744761

 energy correction for charged system         0.000000 eV
 dipol+quadrupol energy correction           -0.000000 eV
 added-field ion interaction          0.000145 eV  (added to PSCEN)


 Free energy of the ion-electron system (eV)
  ---------------------------------------------------
  alpha Z        PSCENC =         0.34445265
  Ewald energy   TEWEN  =       222.34744481
  -Hartree energ DENC   =     -2204.32312155
  -exchange      EXHF   =         0.00000000
  -V(xc)+E(xc)   XCENC  =       -27.48457054
  PAW double counting   =      2013.54339418    -1915.97390902
  entropy T*S    EENTRO =        -0.00000000
  eigenvalues    EBANDS =      -167.05010663
  atomic energy  EATOM  =      2083.24164537
  ---------------------------------------------------
  free energy    TOTEN  =         4.64522927 eV

  energy without entropy =        4.64522927  energy(sigma->0) =        4.64522927


--------------------------------------------------------------------------------------------------------




--------------------------------------- Iteration      1(   4)  ---------------------------------------


    TRIAL :  cpu time      0.6415: real time      0.6416
    CORREC:  cpu time      0.0004: real time      0.0004
    --------------------------------------------
      LOOP:  cpu time      0.6465: real time      0.6542

 eigenvalue-minimisations  :   192
 total energy-change (2. order) :-0.3638824E-01  (-0.3638824E-01)
 number of electron      22.0000000 magnetization 
 augmentation part       22.0000000 magnetization 

 DIPCOR: dipole corrections for dipol
 direction  3 min pos     1,
 dipolmoment           0.000000      0.000000     -0.000090 electrons x Angstroem
 Tr[quadrupol]     -3979.744761

 energy correction for charged system         0.000000 eV
 dipol+quadrupol energy correction           -0.000000 eV
 added-field ion interaction          0.000145 eV  (added to PSCEN)


 Free energy of the ion-electron system (eV)
  ---------------------------------------------------
  alpha Z        PSCENC =         0.34445265
  Ewald energy   TEWEN  =       222.34744481
  -Hartree energ DENC   =     -2204.32312155
  -exchange      EXHF   =         0.00000000
  -V(xc)+E(xc)   XCENC  =       -27.48457054
  PAW double counting   =      2013.54339418    -1915.97390902
  entropy T*S    EENTRO =        -0.00000000
  eigenvalues    EBANDS =      -167.08649487
  atomic energy  EATOM  =      2083.24164537
  ---------------------------------------------------
  free energy    TOTEN  =         4.60884103 eV

  energy without entropy =        4.60884103  energy(sigma->0) =        4.60884103


--------------------------------------------------------------------------------------------------------




--------------------------------------- Iteration      1(   5)  ---------------------------------------


    TRIAL :  cpu time      0.6415: real time      0.6415
    CORREC:  cpu time      0.0004: real time      0.0004
    CHARGE:  cpu time      0.6160: real time      0.6167
    --------------------------------------------
      LOOP:  cpu time      1.2629: real time      1.2710

 eigenvalue-minimisations  :   192
 total energy-change (2. order) :-0.2788672E-04  (-0.2788660E-04)
 number of electron      22.0000009 magnetization 
 augmentation part       10.6583710 magnetization 

 DIPCOR: dipole corrections for dipol
 direction  3 min pos     1,
 dipolmoment           0.000000      0.000000     -0.000090 electrons x Angstroem
 Tr[quadrupol]     -3979.744761

 energy correction for charged system         0.000000 eV
 dipol+quadrupol energy correction           -0.000000 eV
 added-field ion interaction          0.000145 eV  (added to PSCEN)


 Free energy of the ion-electron system (eV)
  ---------------------------------------------------
  alpha Z        PSCENC =         0.34445265
  Ewald energy   TEWEN  =       222.34744481
  -Hartree energ DENC   =     -2204.32312155
  -exchange      EXHF   =         0.00000000
  -V(xc)+E(xc)   XCENC  =       -27.48457054
  PAW double counting   =      2013.54339418    -1915.97390902
  entropy T*S    EENTRO =        -0.00000000
  eigenvalues    EBANDS =      -167.08652276
  atomic energy  EATOM  =      2083.24164537
  ---------------------------------------------------
  free energy    TOTEN  =         4.60881314 eV

  energy without entropy =        4.60881314  energy(sigma->0) =        4.60881314


--------------------------------------------------------------------------------------------------------




--------------------------------------- Iteration      1(   6)  ---------------------------------------


    POTLOK:  cpu time      1.6944: real time      1.6946
    SETDIJ:  cpu time      0.1189: real time      0.1189
    TRIAL :  cpu time      0.2429: real time      0.2435
    CORREC:  cpu time      2.5465: real time      2.5469
    CHARGE:  cpu time      0.6130: real time      0.6130
    --------------------------------------------
      LOOP:  cpu time      5.2361: real time      5.2373

 eigenvalue-minimisations  :     0
 total energy-change (2. order) : 0.4732721E+00  (-0.2261750E+00)
 number of electron      22.0000009 magnetization 
 augmentation part       10.6665847 magnetization 

 DIPCOR: dipole corrections for dipol
 direction  3 min pos     1,
 dipolmoment           0.000000      0.000000     -0.000762 electrons x Angstroem
 Tr[quadrupol]     -3981.569285

 energy correction for charged system         0.000000 eV
 dipol+quadrupol energy correction           -0.000000 eV
 added-field ion interaction          0.001231 eV  (added to PSCEN)


 Free energy of the ion-electron system (eV)
  ---------------------------------------------------
  alpha Z        PSCENC =         0.34431950
  Ewald energy   TEWEN  =       222.34744481
  -Hartree energ DENC   =     -2219.08841600
  -exchange      EXHF   =         0.00000000
  -V(xc)+E(xc)   XCENC  =       -27.29602226
  PAW double counting   =      2100.14515352    -2004.22023891
  entropy T*S    EENTRO =        -0.00000000
  eigenvalues    EBANDS =      -150.39180080
  atomic energy  EATOM  =      2083.24164537
  ---------------------------------------------------
  free energy    TOTEN  =         5.08208525 eV

  energy without entropy =        5.08208525  energy(sigma->0) =        5.08208525


--------------------------------------------------------------------------------------------------------




--------------------------------------- Iteration      1(   7)  ---------------------------------------


    POTLOK:  cpu time      1.7379: real time      1.7380
    SETDIJ:  cpu time      0.1140: real time      0.1140
    TRIAL :  cpu time      0.2363: real time      0.2363
    CORREC:  cpu time      2.5395: real time      2.5397
    CHARGE:  cpu time      0.6147: real time      0.6147
    --------------------------------------------
      LOOP:  cpu time      5.2474: real time      5.2559

 eigenvalue-minimisations  :     0
 total energy-change (2. order) :-0.2260128E+00  (-0.2856024E-01)
 number of electron      22.0000009 magnetization 
 augmentation part       10.6982007 magnetization 

 DIPCOR: dipole corrections for dipol
 direction  3 min pos     1,
 dipolmoment           0.000000      0.000000     -0.000717 electrons x Angstroem
 Tr[quadrupol]     -3981.375496

 energy correction for charged system         0.000000 eV
 dipol+quadrupol energy correction           -0.000000 eV
 added-field ion interaction          0.001160 eV  (added to PSCEN)


 Free energy of the ion-electron system (eV)
  ---------------------------------------------------
  alpha Z        PSCENC =         0.34597592
  Ewald energy   TEWEN  =       222.34744481
  -Hartree energ DENC   =     -2209.75472710
  -exchange      EXHF   =         0.00000000
  -V(xc)+E(xc)   XCENC  =       -27.46378908
  PAW double counting   =      2087.33227921    -1991.25181638
  entropy T*S    EENTRO =        -0.00000000
  eigenvalues    EBANDS =      -159.94094035
  atomic energy  EATOM  =      2083.24164537
  ---------------------------------------------------
  free energy    TOTEN  =         4.85607241 eV

  energy without entropy =        4.85607241  energy(sigma->0) =        4.85607241


--------------------------------------------------------------------------------------------------------




--------------------------------------- Iteration      1(   8)  ---------------------------------------


    POTLOK:  cpu time      1.7367: real time      1.7373
    SETDIJ:  cpu time      0.1122: real time      0.1122
    TRIAL :  cpu time      0.2377: real time      0.2378
    CORREC:  cpu time      2.5342: real time      2.5344
    CHARGE:  cpu time      0.6151: real time      0.6151
    --------------------------------------------
      LOOP:  cpu time      5.2486: real time      5.2497

 eigenvalue-minimisations  :     0
 total energy-change (2. order) :-0.2861895E-01  (-0.8953080E-02)
 number of electron      22.0000009 magnetization 
 augmentation part       10.6750823 magnetization 

 DIPCOR: dipole corrections for dipol
 direction  3 min pos     1,
 dipolmoment           0.000000      0.000000     -0.000175 electrons x Angstroem
 Tr[quadrupol]     -3981.198254

 energy correction for charged system         0.000000 eV
 dipol+quadrupol energy correction           -0.000000 eV
 added-field ion interaction          0.000282 eV  (added to PSCEN)


 Free energy of the ion-electron system (eV)
  ---------------------------------------------------
  alpha Z        PSCENC =         0.34510931
  Ewald energy   TEWEN  =       222.34744481
  -Hartree energ DENC   =     -2213.46867418
  -exchange      EXHF   =         0.00000000
  -V(xc)+E(xc)   XCENC  =       -27.33513563
  PAW double counting   =      2089.64611765    -1993.60279330
  entropy T*S    EENTRO =        -0.00000000
  eigenvalues    EBANDS =      -156.34626057
  atomic energy  EATOM  =      2083.24164537
  ---------------------------------------------------
  free energy    TOTEN  =         4.82745346 eV

  energy without entropy =        4.82745346  energy(sigma->0) =        4.82745346


--------------------------------------------------------------------------------------------------------




--------------------------------------- Iteration      1(   9)  ---------------------------------------


    POTLOK:  cpu time      1.7313: real time      1.7315
    SETDIJ:  cpu time      0.1095: real time      0.1095
    TRIAL :  cpu time      0.2382: real time      0.2382
    CORREC:  cpu time      2.5131: real time      2.5132
    CHARGE:  cpu time      0.6075: real time      0.6076
    --------------------------------------------
      LOOP:  cpu time      5.2034: real time      5.2125

 eigenvalue-minimisations  :     0
 total energy-change (2. order) :-0.8943750E-02  (-0.2791265E-02)
 number of electron      22.0000009 magnetization 
 augmentation part       10.6820561 magnetization 

 DIPCOR: dipole corrections for dipol
 direction  3 min pos     1,
 dipolmoment           0.000000      0.000000     -0.000041 electrons x Angstroem
 Tr[quadrupol]     -3981.144129

 energy correction for charged system         0.000000 eV
 dipol+quadrupol energy correction           -0.000000 eV
 added-field ion interaction          0.000066 eV  (added to PSCEN)


 Free energy of the ion-electron system (eV)
  ---------------------------------------------------
  alpha Z        PSCENC =         0.34452730
  Ewald energy   TEWEN  =       222.34744481
  -Hartree energ DENC   =     -2209.30383978
  -exchange      EXHF   =         0.00000000
  -V(xc)+E(xc)   XCENC  =       -27.45558540
  PAW double counting   =      2085.14845351    -1989.01589217
  entropy T*S    EENTRO =        -0.00000000
  eigenvalues    EBANDS =      -160.48824394
  atomic energy  EATOM  =      2083.24164537
  ---------------------------------------------------
  free energy    TOTEN  =         4.81850971 eV

  energy without entropy =        4.81850971  energy(sigma->0) =        4.81850971


--------------------------------------------------------------------------------------------------------




--------------------------------------- Iteration      1(  10)  ---------------------------------------


    POTLOK:  cpu time      1.6985: real time      1.6991
    SETDIJ:  cpu time      0.1201: real time      0.1201
    TRIAL :  cpu time      0.2370: real time      0.2370
    CORREC:  cpu time      2.5076: real time      2.5078
    CHARGE:  cpu time      0.6125: real time      0.6125
    --------------------------------------------
      LOOP:  cpu time      5.1896: real time      5.1906

 eigenvalue-minimisations  :     0
 total energy-change (2. order) :-0.2782162E-02  (-0.4937123E-03)
 number of electron      22.0000009 magnetization 
 augmentation part       10.6822699 magnetization 

 DIPCOR: dipole corrections for dipol
 direction  3 min pos     1,
 dipolmoment           0.000000      0.000000     -0.000013 electrons x Angstroem
 Tr[quadrupol]     -3981.111452

 energy correction for charged system         0.000000 eV
 dipol+quadrupol energy correction           -0.000000 eV
 added-field ion interaction          0.000021 eV  (added to PSCEN)


 Free energy of the ion-electron system (eV)
  ---------------------------------------------------
  alpha Z        PSCENC =         0.34433033
  Ewald energy   TEWEN  =       222.34744481
  -Hartree energ DENC   =     -2209.87118161
  -exchange      EXHF   =         0.00000000
  -V(xc)+E(xc)   XCENC  =       -27.43759055
  PAW double counting   =      2086.08302158    -1989.93252952
  entropy T*S    EENTRO =        -0.00000000
  eigenvalues    EBANDS =      -159.95941286
  atomic energy  EATOM  =      2083.24164537
  ---------------------------------------------------
  free energy    TOTEN  =         4.81572755 eV

  energy without entropy =        4.81572755  energy(sigma->0) =        4.81572755


--------------------------------------------------------------------------------------------------------




--------------------------------------- Iteration      1(  11)  ---------------------------------------


    POTLOK:  cpu time      1.6978: real time      1.6980
    SETDIJ:  cpu time      0.1156: real time      0.1156
    TRIAL :  cpu time      0.2378: real time      0.2378
    CORREC:  cpu time      2.4993: real time      2.4994
    CHARGE:  cpu time      0.6158: real time      0.6158
    --------------------------------------------
      LOOP:  cpu time      5.1713: real time      5.1797

 eigenvalue-minimisations  :     0
 total energy-change (2. order) :-0.4941142E-03  (-0.7258585E-04)
 number of electron      22.0000009 magnetization 
 augmentation part       10.6816490 magnetization 

 DIPCOR: dipole corrections for dipol
 direction  3 min pos     1,
 dipolmoment           0.000000      0.000000     -0.000017 electrons x Angstroem
 Tr[quadrupol]     -3981.104458

 energy correction for charged system         0.000000 eV
 dipol+quadrupol energy correction           -0.000000 eV
 added-field ion interaction          0.000027 eV  (added to PSCEN)


 Free energy of the ion-electron system (eV)
  ---------------------------------------------------
  alpha Z        PSCENC =         0.34433325
  Ewald energy   TEWEN  =       222.34744481
  -Hartree energ DENC   =     -2209.76532194
  -exchange      EXHF   =         0.00000000
  -V(xc)+E(xc)   XCENC  =       -27.44094698
  PAW double counting   =      2085.71003103    -1989.55107587
  entropy T*S    EENTRO =        -0.00000000
  eigenvalues    EBANDS =      -160.07087623
  atomic energy  EATOM  =      2083.24164537
  ---------------------------------------------------
  free energy    TOTEN  =         4.81523344 eV

  energy without entropy =        4.81523344  energy(sigma->0) =        4.81523344


--------------------------------------------------------------------------------------------------------




--------------------------------------- Iteration      1(  12)  ---------------------------------------


    POTLOK:  cpu time      1.6958: real time      1.6964
    SETDIJ:  cpu time      0.1157: real time      0.1157
    TRIAL :  cpu time      0.2379: real time      0.2380
    CORREC:  cpu time      2.5025: real time      2.5027
    CHARGE:  cpu time      0.6120: real time      0.6121
    --------------------------------------------
      LOOP:  cpu time      5.1693: real time      5.1778

 eigenvalue-minimisations  :     0
 total energy-change (2. order) :-0.7327330E-04  (-0.1113953E-04)
 number of electron      22.0000009 magnetization 
 augmentation part       10.6824391 magnetization 

 DIPCOR: dipole corrections for dipol
 direction  3 min pos     1,
 dipolmoment           0.000000      0.000000     -0.000018 electrons x Angstroem
 Tr[quadrupol]     -3981.105024

 energy correction for charged system         0.000000 eV
 dipol+quadrupol energy correction           -0.000000 eV
 added-field ion interaction          0.000029 eV  (added to PSCEN)


 Free energy of the ion-electron system (eV)
  ---------------------------------------------------
  alpha Z        PSCENC =         0.34433708
  Ewald energy   TEWEN  =       222.34744481
  -Hartree energ DENC   =     -2209.66039357
  -exchange      EXHF   =         0.00000000
  -V(xc)+E(xc)   XCENC  =       -27.44424533
  PAW double counting   =      2085.37641155    -1989.21547159
  entropy T*S    EENTRO =        -0.00000000
  eigenvalues    EBANDS =      -160.17456816
  atomic energy  EATOM  =      2083.24164537
  ---------------------------------------------------
  free energy    TOTEN  =         4.81516016 eV

  energy without entropy =        4.81516016  energy(sigma->0) =        4.81516016


--------------------------------------------------------------------------------------------------------




--------------------------------------- Iteration      1(  13)  ---------------------------------------


    POTLOK:  cpu time      1.6968: real time      1.6969
    SETDIJ:  cpu time      0.1151: real time      0.1151
    TRIAL :  cpu time      0.2370: real time      0.2371
    CORREC:  cpu time      2.4970: real time      2.4971
    CHARGE:  cpu time      0.6111: real time      0.6117
    --------------------------------------------
      LOOP:  cpu time      5.1731: real time      5.1818

 eigenvalue-minimisations  :     0
 total energy-change (2. order) :-0.1057119E-04  (-0.2168486E-05)
 number of electron      22.0000009 magnetization 
 augmentation part       10.6821267 magnetization 

 DIPCOR: dipole corrections for dipol
 direction  3 min pos     1,
 dipolmoment           0.000000      0.000000     -0.000017 electrons x Angstroem
 Tr[quadrupol]     -3981.105144

 energy correction for charged system         0.000000 eV
 dipol+quadrupol energy correction           -0.000000 eV
 added-field ion interaction          0.000028 eV  (added to PSCEN)


 Free energy of the ion-electron system (eV)
  ---------------------------------------------------
  alpha Z        PSCENC =         0.34433616
  Ewald energy   TEWEN  =       222.34744481
  -Hartree energ DENC   =     -2209.78936592
  -exchange      EXHF   =         0.00000000
  -V(xc)+E(xc)   XCENC  =       -27.44047146
  PAW double counting   =      2085.43735504    -1989.27829811
  entropy T*S    EENTRO =        -0.00000000
  eigenvalues    EBANDS =      -160.04749632
  atomic energy  EATOM  =      2083.24164537
  ---------------------------------------------------
  free energy    TOTEN  =         4.81514959 eV

  energy without entropy =        4.81514959  energy(sigma->0) =        4.81514959


--------------------------------------------------------------------------------------------------------




--------------------------------------- Iteration      1(  14)  ---------------------------------------


    POTLOK:  cpu time      1.6983: real time      1.6984
    SETDIJ:  cpu time      0.1128: real time      0.1128
    TRIAL :  cpu time      0.2371: real time      0.2371
    CORREC:  cpu time      2.5103: real time      2.5105
    CHARGE:  cpu time      0.6138: real time      0.6139
    --------------------------------------------
      LOOP:  cpu time      5.1883: real time      5.1889

 eigenvalue-minimisations  :     0
 total energy-change (2. order) :-0.2081020E-05  (-0.4099958E-06)
 number of electron      22.0000009 magnetization 
 augmentation part       10.6820045 magnetization 

 DIPCOR: dipole corrections for dipol
 direction  3 min pos     1,
 dipolmoment           0.000000      0.000000     -0.000017 electrons x Angstroem
 Tr[quadrupol]     -3981.105101

 energy correction for charged system         0.000000 eV
 dipol+quadrupol energy correction           -0.000000 eV
 added-field ion interaction          0.000028 eV  (added to PSCEN)


 Free energy of the ion-electron system (eV)
  ---------------------------------------------------
  alpha Z        PSCENC =         0.34433551
  Ewald energy   TEWEN  =       222.34744481
  -Hartree energ DENC   =     -2209.74142815
  -exchange      EXHF   =         0.00000000
  -V(xc)+E(xc)   XCENC  =       -27.44191594
  PAW double counting   =      2085.36151230    -1989.20163053
  entropy T*S    EENTRO =        -0.00000000
  eigenvalues    EBANDS =      -160.09481586
  atomic energy  EATOM  =      2083.24164537
  ---------------------------------------------------
  free energy    TOTEN  =         4.81514751 eV

  energy without entropy =        4.81514751  energy(sigma->0) =        4.81514751


--------------------------------------------------------------------------------------------------------




--------------------------------------- Iteration      1(  15)  ---------------------------------------


    POTLOK:  cpu time      1.6963: real time      1.6964
    SETDIJ:  cpu time      0.1147: real time      0.1147
    TRIAL :  cpu time      0.2372: real time      0.2373
    CORREC:  cpu time      2.5000: real time      2.5006
    EDDIAG:  cpu time      0.0979: real time      0.0983
    CHARGE:  cpu time      0.6150: real time      0.6150
    --------------------------------------------
      LOOP:  cpu time      5.2673: real time      5.2751

 eigenvalue-minimisations  :     0
 total energy-change (2. order) :-0.3487337E-06  (-0.3300482E-06)
 number of electron      22.0000009 magnetization 
 augmentation part       10.6820034 magnetization 

 DIPCOR: dipole corrections for dipol
 direction  3 min pos     1,
 dipolmoment           0.000000      0.000000     -0.000017 electrons x Angstroem
 Tr[quadrupol]     -3981.105315

 energy correction for charged system         0.000000 eV
 dipol+quadrupol energy correction           -0.000000 eV
 added-field ion interaction          0.000028 eV  (added to PSCEN)


 Free energy of the ion-electron system (eV)
  ---------------------------------------------------
  alpha Z        PSCENC =         0.34433528
  Ewald energy   TEWEN  =       222.34744481
  -Hartree energ DENC   =     -2209.72348910
  -exchange      EXHF   =         0.00000000
  -V(xc)+E(xc)   XCENC  =       -27.44245932
  PAW double counting   =      2085.33590987    -1989.17569891
  entropy T*S    EENTRO =        -0.00000000
  eigenvalues    EBANDS =      -160.11254084
  atomic energy  EATOM  =      2083.24164537
  ---------------------------------------------------
  free energy    TOTEN  =         4.81514716 eV

  energy without entropy =        4.81514716  energy(sigma->0) =        4.81514716


--------------------------------------------------------------------------------------------------------


  average scaling for gradient   1.4499


 average (electrostatic) potential at core
  the test charge radii are     1.1249
  (the norm of the test charge is              1.0000)
       1 -82.4339       2 -82.4339



 E-fermi :  -5.0623     XC(G=0):  -0.2141     alpha+bet : -0.0465

 Fermi energy:        -5.0622929477

 k-point     1 :       0.0000    0.0000    0.0000
  band No.  band energies     occupation 
      1      -8.4756      2.00000
      2      -7.9755      2.00000
      3      -7.9755      2.00000
      4      -7.4621      2.00000
      5      -7.4621      2.00000
      6      -7.2684      2.00000
      7      -7.2683      2.00000
      8      -7.0077      2.00000
      9      -7.0077      2.00000
     10      -6.8536      2.00000
     11      -5.2987      2.00000
     12      -3.3402      0.00000
     13      -1.3630      0.00000
     14      -1.3630      0.00000
     15      -0.9382      0.00000
     16      -0.0640      0.00000
     17      -0.0093      0.00000
     18      -0.0093      0.00000
     19       0.1458      0.00000
     20       0.1765      0.00000
     21       0.2966      0.00000
     22       0.3274      0.00000
     23       0.3276      0.00000
     24       0.3507      0.00000
     25       0.4817      0.00000
     26       0.4972      0.00000
     27       0.5627      0.00000
     28       0.5862      0.00000
     29       0.6345      0.00000
     30       0.6346      0.00000
     31       0.6392      0.00000
     32       0.6596      0.00000
     33       0.6599      0.00000
     34       0.7010      0.00000
     35       0.7237      0.00000
     36       0.7240      0.00000
     37       0.8582      0.00000
     38       0.9115      0.00000
     39       0.9123      0.00000
     40       0.9413      0.00000
     41       0.9697      0.00000
     42       0.9728      0.00000
     43       0.9730      0.00000
     44       1.0502      0.00000
     45       1.0503      0.00000
     46       1.1194      0.00000
     47       1.1727      0.00000
     48       1.2530      0.00000
     49       1.2532      0.00000
     50       1.2991      0.00000
     51       1.3793      0.00000
     52       1.3980      0.00000
     53       1.3981      0.00000
     54       1.4039      0.00000
     55       1.4503      0.00000
     56       1.4601      0.00000
     57       1.4782      0.00000
     58       1.5498      0.00000
     59       1.5629      0.00000
     60       1.5633      0.00000
     61       1.5707      0.00000
     62       1.5708      0.00000
     63       1.5739      0.00000
     64       1.5989      0.00000


--------------------------------------------------------------------------------------------------------


 soft charge-density along one line, spin component           1
         0         1         2         3         4         5         6         7         8         9
 total charge-density along one line

 pseudopotential strength for first ion, spin component:           1
-10.345  -0.000   0.000   0.000   0.000 -10.319  -0.000   0.000
 -0.000 -10.376   0.000  -0.000  -0.000  -0.000 -10.349   0.000
  0.000   0.000 -10.396  -0.000   0.000   0.000   0.000 -10.368
  0.000  -0.000  -0.000 -10.376  -0.000   0.000  -0.000  -0.000
  0.000  -0.000   0.000  -0.000 -10.345   0.000  -0.000   0.000
-10.319  -0.000   0.000   0.000   0.000 -10.268  -0.000   0.000
 -0.000 -10.349   0.000  -0.000  -0.000  -0.000 -10.297   0.000
  0.000   0.000 -10.368  -0.000   0.000   0.000   0.000 -10.315
  0.000  -0.000  -0.000 -10.349  -0.000   0.000  -0.000  -0.000
  0.000  -0.000   0.000  -0.000 -10.319   0.000  -0.000   0.000
  0.000  -0.000   0.013   0.000   0.000   0.000  -0.000   0.012
  0.000  -0.000   0.021   0.000   0.000   0.000  -0.000   0.020
 -0.000   0.037  -0.000  -0.000  -0.000  -0.000   0.036  -0.000
 -0.000   0.000   0.040  -0.000  -0.000  -0.000   0.000   0.038
  0.000  -0.000   0.000   0.037  -0.000   0.000  -0.000   0.000
 -0.000   0.045  -0.000  -0.000  -0.000  -0.000   0.043  -0.000
 -0.000   0.000   0.048  -0.000  -0.000  -0.000   0.000   0.046
  0.000  -0.000   0.000   0.045  -0.000   0.000  -0.000   0.000
 total augmentation occupancy for first ion, spin component:           1
  2.192   0.000  -0.000  -0.000  -0.000  -0.104   0.000   0.000  -0.000   0.000   0.000  -0.000   0.000  -0.000   0.000   0.000
  0.000   2.321  -0.000   0.000  -0.000  -0.000  -0.300  -0.000   0.000   0.000   0.000   0.000   0.017  -0.000  -0.000   0.022
 -0.000  -0.000   2.672   0.000  -0.000  -0.000   0.000  -0.773   0.000   0.000  -0.949   0.124  -0.000   0.144  -0.000   0.000
 -0.000   0.000   0.000   2.321  -0.000  -0.000  -0.000   0.000  -0.300   0.000   0.000  -0.000   0.000   0.000   0.017   0.000
 -0.000  -0.000  -0.000  -0.000   2.192  -0.000  -0.000   0.000  -0.000  -0.104   0.000  -0.000   0.000  -0.000   0.000   0.000
 -0.104  -0.000  -0.000  -0.000  -0.000   0.015   0.000   0.000  -0.000  -0.000   0.000   0.000  -0.000   0.000  -0.000  -0.000
  0.000  -0.300   0.000  -0.000  -0.000   0.000   0.270   0.000   0.000  -0.000  -0.000  -0.000  -0.040   0.000   0.000   0.002
 -0.000  -0.000  -0.773   0.000   0.000   0.000   0.000   0.852   0.000  -0.000   0.795  -0.091   0.000  -0.192   0.000   0.000
 -0.000   0.000   0.000  -0.300  -0.000  -0.000   0.000   0.000   0.270   0.000  -0.000   0.000   0.000  -0.000  -0.040   0.000
  0.000   0.000   0.000   0.000  -0.104  -0.000  -0.000  -0.000   0.000   0.015  -0.000   0.000   0.000   0.000   0.000   0.000
  0.000   0.000  -0.949   0.000   0.000   0.000  -0.000   0.795  -0.000  -0.000   1.455  -0.100   0.000  -0.218  -0.000   0.000
 -0.000   0.000   0.124  -0.000  -0.000   0.000  -0.000  -0.091   0.000   0.000  -0.100   0.011  -0.000   0.020   0.000  -0.000
  0.000   0.017   0.000   0.000   0.000  -0.000  -0.040   0.000   0.000   0.000   0.000  -0.000   0.006  -0.000   0.000  -0.001
 -0.000  -0.000   0.144   0.000  -0.000   0.000   0.000  -0.192  -0.000   0.000  -0.218   0.020   0.000   0.046   0.000   0.000
  0.000  -0.000  -0.000   0.017   0.000  -0.000   0.000  -0.000  -0.040   0.000  -0.000   0.000   0.000  -0.000   0.006   0.000
  0.000   0.022  -0.000   0.000   0.000  -0.000   0.002   0.000   0.000   0.000   0.000  -0.000  -0.001  -0.000   0.000   0.000
  0.000  -0.000   0.012   0.000  -0.000   0.000   0.000   0.015   0.000  -0.000   0.015  -0.001  -0.000  -0.004  -0.000   0.000
 -0.000  -0.000   0.000   0.022  -0.000   0.000   0.000  -0.000   0.002  -0.000   0.000  -0.000  -0.000  -0.000  -0.001   0.000


------------------------ aborting loop because EDIFF is reached ----------------------------------------


    FORLOC:  cpu time      0.0021: real time      0.0021
    FORNL :  cpu time      0.1184: real time      0.1184
    STRESS:  cpu time      0.3552: real time      0.3556
    FORCOR:  cpu time      1.6407: real time      1.6408
    OFIELD:  cpu time      0.0007: real time      0.0007

  FORCE on cell =-STRESS in cart. coord.  units (eV):
  Direction    XX          YY          ZZ          XY          YZ          ZX
  --------------------------------------------------------------------------------------
  Alpha Z     0.34431     0.34431     0.34431
  Ewald    -147.82980  -147.82980   518.00709    -0.00000    -0.00000     0.00000
  Hartree   576.58396   576.58396  1056.55854    -0.00000     0.00000    -0.00000
  E(xc)    -118.15860  -118.15860  -117.32636     0.00000    -0.00000    -0.00000
  Local    -748.91761  -748.91761 -1883.88897     0.00000    -0.00000     0.00000
  n-local   -24.99426   -24.99427   -28.03080    -0.00000    -0.00001     0.00001
  augment   185.67789   185.67789   183.63491     0.00000    -0.00000    -0.00000
  Kinetic   277.27414   277.27414   271.52766     0.00001     0.00001    -0.00001
  Fock        0.00000     0.00000     0.00000     0.00000     0.00000     0.00000
  -------------------------------------------------------------------------------------
  Total      -0.01997    -0.01997     0.82639    -0.00000     0.00000     0.00000
  in kB      -0.00324    -0.00324     0.13399    -0.00000     0.00000     0.00000
  external pressure =        0.04 kB  Pullay stress =        0.00 kB


 VOLUME and BASIS-vectors are now :
 -----------------------------------------------------------------------------
  energy-cutoff  :      520.00
  volume of cell :     9881.61
      direct lattice vectors                 reciprocal lattice vectors
    21.138852197  0.000000000  0.000000000     0.047306258  0.000000000  0.000000000
     0.000000000 21.138852197  0.000000000     0.000000000  0.047306258  0.000000000
     0.000000000  0.000000000 22.113885220     0.000000000  0.000000000  0.045220457

  length of vectors
    21.138852197 21.138852197 22.113885220     0.047306258  0.047306258  0.045220457


 FORCES acting on ions:
    Electron-Ion                     Ewald-Force                    Non-Local-Force
 -----------------------------------------------------------------------------------------------
   0.136E-04 -.114E-03 -.271E+03   -.671E-16 -.572E-16 0.264E+03   -.212E-21 0.132E-22 0.702E+01
   0.136E-04 -.114E-03 0.271E+03   0.890E-17 0.544E-16 -.264E+03   0.000E+00 0.662E-23 -.702E+01
 -----------------------------------------------------------------------------------------------
   0.278E-04 -.231E-03 -.339E-04   -.582E-16 -.280E-17 0.000E+00   -.212E-21 0.199E-22 0.000E+00


 POSITION                                       TOTAL-FORCE (eV/Angst)
 -----------------------------------------------------------------------------------
      9.51248      9.51248     16.05027        -0.000000     -0.000000      0.328478
      9.51248      9.51248     13.49036         0.000000      0.000000     -0.328478
 -----------------------------------------------------------------------------------
    total drift:                                0.000028     -0.000231     -0.000034


--------------------------------------------------------------------------------------------------------



  FREE ENERGIE OF THE ION-ELECTRON SYSTEM (eV)
  ---------------------------------------------------
  free  energy   TOTEN  =         4.81514716 eV

  energy  without entropy=        4.81514716  energy(sigma->0) =        4.81514716



--------------------------------------------------------------------------------------------------------


    POTLOK:  cpu time      1.8205: real time      1.8207


--------------------------------------------------------------------------------------------------------


     LOOP+:  cpu time     62.0867: real time     62.2100
    4ORBIT:  cpu time      0.0000: real time      0.0000

 total amount of memory used by VASP MPI-rank0   125759. kBytes
=======================================================================

   base      :      30000. kBytes
   nonlr-proj:        655. kBytes
   fftplans  :      38424. kBytes
   grid      :      53473. kBytes
   one-center:         15. kBytes
   wavefun   :       3192. kBytes

  
  
 General timing and accounting informations for this job:
 ========================================================
  
                  Total CPU time used (sec):       78.290
                            User time (sec):       75.386
                          System time (sec):        2.904
                         Elapsed time (sec):       81.585
  
                   Maximum memory used (kb):      477632.
                   Average memory used (kb):          N/A
  
                          Minor page faults:        83985
                          Major page faults:            0
                 Voluntary context switches:         6468
