 vasp.6.3.0 20Jan22 (build Apr  1 2022 16:44:48) complex                         
 executed on        HPECrayEX_GCC date 2022.08.15  20:52:22
 running  512 mpi-ranks, with    1 threads/rank
 distrk:  each k-point on  256 cores,    2 groups
 distr:  one band on NCORE=   4 cores,   64 groups


--------------------------------------------------------------------------------------------------------


 INCAR:
   SYSTEM = MgO-rocksalt
   ISMEAR = 0
   SIGMA = 0.05
   EDIFF = 1E-6
   ALGO = ALL
   ISTART = 0
   IBRION = -1
   NSW = 0
   ISYM = 2
   DIPOL = 0.5 0.5 0.5
   IDIPOL = 3
   LDIPOL = .TRUE.
   GGA = RE
   ENCUT = 520
   PREC = Accurate
   LASPH = .TRUE.
   LREAL = Auto
   ISPIN = 1
   NELM = 200
   NELMIN = 8
   NCORE = 4
   KPAR = 2
   LWAVE = .FALSE.
   LCHARG = .FALSE.

 POTCAR:    PAW_PBE Ag 02Apr2005                  
 POTCAR:    PAW_PBE Ag 02Apr2005                  
   SHA256 =  6550cfa3543261e132c169e1b98a529204624d72be14e2da2e0242bcb74a174d Ag/POTCAR             
   COPYR  = (c) Copyright 02Apr2005 Georg Kresse                                                    
   COPYR  = This file is part of the software VASP. Any use, copying, and all other rights are regul
   COPYR  = If you do not have a valid VASP license, you may not use, copy or distribute this file. 
   VRHFIN =Ag : s1 d10                                                                              
   LEXCH  = PE                                                                                      
   EATOM  =  1037.2675 eV,   76.2370 Ry                                                             
                                                                                                    
   TITEL  = PAW_PBE Ag 02Apr2005                                                                    
   LULTRA =        F    use ultrasoft PP ?                                                          
   IUNSCR =        1    unscreen: 0-lin 1-nonlin 2-no                                               
   RPACOR =    2.000    partial core radius                                                         
   POMASS =  107.868; ZVAL   =   11.000    mass and valenz                                          
   RCORE  =    2.500    outmost cutoff radius                                                       
   RWIGS  =    2.840; RWIGS  =    1.503    wigner-seitz radius (au A)                               
   ENMAX  =  249.844; ENMIN  =  187.383 eV                                                          
   ICORE  =        3    local potential                                                             
   LCOR   =        T    correct aug charges                                                         
   LPAW   =        T    paw PP                                                                      
   EAUG   =  412.496                                                                                
   DEXC   =    0.000                                                                                
   RMAX   =    2.560    core radius for proj-oper                                                   
   RAUG   =    1.300    factor for augmentation sphere                                              
   RDEP   =    2.576    radius for radial grids                                                     
   RDEPT  =    2.072    core radius for aug-charge                                                  
                                                                                                    
   Atomic configuration                                                                             
   12 entries                                                                                       
     n  l   j            E        occ.                                                              
     1  0  0.50    -25324.9161   2.0000                                                             
     2  0  0.50     -3728.5341   2.0000                                                             
     2  1  1.50     -3344.0404   6.0000                                                             
     3  0  0.50      -683.5581   2.0000                                                             
     3  1  1.50      -557.3225   6.0000                                                             
     3  2  2.50      -358.3853  10.0000                                                             
     4  0  0.50       -95.0341   2.0000                                                             
     4  1  1.50       -58.5511   6.0000                                                             
     4  2  2.50        -7.4440  10.0000                                                             
     5  0  0.50        -4.4045   1.0000                                                             
     5  1  0.50        -1.3606   0.0000                                                             
     4  3  2.50        -1.3606   0.0000                                                             
   Description                                                                                      
     l       E           TYP  RCUT    TYP  RCUT                                                     
     2     -7.4439781     23  2.400                                                                 
     2     -8.8045607     23  2.400                                                                 
     0     -4.4044681     23  2.400                                                                 
     0      1.9520038     23  2.400                                                                 
     1     -1.3605826     23  2.500                                                                 
     1     27.2116520     23  2.500                                                                 
     3     -4.0817478     23  2.400                                                                 
  local pseudopotential read in
  partial core-charges read in
  partial kinetic energy density read in
  atomic valenz-charges read in
  non local Contribution for L=           2  read in
    real space projection operators read in
  non local Contribution for L=           2  read in
    real space projection operators read in
  non local Contribution for L=           0  read in
    real space projection operators read in
  non local Contribution for L=           0  read in
    real space projection operators read in
  non local Contribution for L=           1  read in
    real space projection operators read in
  non local Contribution for L=           1  read in
    real space projection operators read in
    PAW grid and wavefunctions read in

   number of l-projection  operators is LMAX  =           6
   number of lm-projection operators is LMMAX =          18

 -----------------------------------------------------------------------------
|                                                                             |
|               ----> ADVICE to this user running VASP <----                  |
|                                                                             |
|     You have a (more or less) 'small supercell' and for smaller cells       |
|     it is recommended to use the reciprocal-space projection scheme!        |
|     The real-space optimization is not efficient for small cells and it     |
|     is also less accurate ...                                               |
|     Therefore, set LREAL=.FALSE. in the INCAR file.                         |
|                                                                             |
 -----------------------------------------------------------------------------

 Optimization of the real space projectors (new method)

 maximal supplied QI-value         = 15.12
 optimisation between [QCUT,QGAM] = [ 11.64, 23.28] = [ 37.95,151.78] Ry 
 Optimized for a Real-space Cutoff    1.45 Angstroem

   l    n(q)    QCUT    max X(q) W(low)/X(q) W(high)/X(q)  e(spline) 
   2      9    11.641    53.897    0.22E-03    0.42E-04    0.28E-06
   2      9    11.641    52.416    0.23E-03    0.44E-04    0.29E-06
   0     10    11.641   122.045    0.51E-04    0.25E-04    0.16E-06
   0     10    11.641    73.629    0.49E-04    0.24E-04    0.16E-06
   1     10    11.641    15.255    0.99E-04    0.55E-04    0.11E-06
   1     10    11.641     9.562    0.81E-04    0.47E-04    0.95E-07
 -----------------------------------------------------------------------------
|                                                                             |
|               ----> ADVICE to this user running VASP <----                  |
|                                                                             |
|     You enforced a specific xc type in the INCAR file but a different       |
|     type was found in the POTCAR file.                                      |
|     I HOPE YOU KNOW WHAT YOU ARE DOING!                                     |
|                                                                             |
 -----------------------------------------------------------------------------

  PAW_PBE Ag 02Apr2005                  :
 energy of atom  1       EATOM=-1037.2675
 kinetic energy error for atom=    0.0047 (will be added to EATOM!!)


 POSCAR: Ag
  positions in direct lattice
  No initial velocities read in
 exchange correlation table for  LEXCH =       40
   RHO(1)=    0.500       N(1)  =     2000
   RHO(2)=  100.500       N(2)  =     4000



--------------------------------------------------------------------------------------------------------


 ion  position               nearest neighbor table
   1  0.450  0.450  0.726-   2 2.56
   2  0.450  0.450  0.610-   1 2.56

  LATTYP: Found a simple tetragonal cell.
 ALAT       =    21.1388521970
 C/A-ratio  =     1.0461251639
  
  Lattice vectors:
  
 A1 = (  21.1388521970,   0.0000000000,   0.0000000000)
 A2 = (   0.0000000000,  21.1388521970,   0.0000000000)
 A3 = (   0.0000000000,   0.0000000000,  22.1138852197)


Analysis of symmetry for initial positions (statically):
=====================================================================
 Subroutine PRICEL returns:
 Original cell was already a primitive cell.
 

 Routine SETGRP: Setting up the symmetry group for a 
 simple tetragonal supercell.


 Subroutine GETGRP returns: Found 16 space group operations
 (whereof  2 operations were pure point group operations)
 out of a pool of 16 trial point group operations.


The static configuration has the point symmetry C_1h.
 The point group associated with its full space group is D_4h.


Analysis of symmetry for dynamics (positions and initial velocities):
=====================================================================
 Subroutine PRICEL returns:
 Original cell was already a primitive cell.
 

 Routine SETGRP: Setting up the symmetry group for a 
 simple tetragonal supercell.


 Subroutine GETGRP returns: Found 16 space group operations
 (whereof  2 operations were pure point group operations)
 out of a pool of 16 trial point group operations.


The dynamic configuration has the point symmetry C_1h.
 The point group associated with its full space group is D_4h.


 Subroutine INISYM returns: Found 16 space group operations
 (whereof  2 operations are pure point group operations),
 and found     1 'primitive' translations


----------------------------------------------------------------------------------------

                                     Primitive cell                                     

  volume of cell :    9881.6133

  direct lattice vectors                    reciprocal lattice vectors
    21.138852197  0.000000000  0.000000000     0.047306258  0.000000000  0.000000000
     0.000000000 21.138852197  0.000000000     0.000000000  0.047306258  0.000000000
     0.000000000  0.000000000 22.113885220     0.000000000  0.000000000  0.045220457

  length of vectors
    21.138852197 21.138852197 22.113885220     0.047306258  0.047306258  0.045220457

  position of ions in fractional coordinates (direct lattice)
     0.449999988  0.450000018  0.725800575
     0.449999988  0.450000018  0.610040178

  ion indices of the primitive-cell ions
   primitive index   ion index
                 1           1
                 2           2

----------------------------------------------------------------------------------------



 KPOINTS: KPOINTS created by Atomic Simulation Env

Automatic generation of k-mesh.
 Grid dimensions read from file:
 generate k-points for:    1    1    1

 Generating k-lattice:

  Cartesian coordinates                     Fractional coordinates (reciprocal lattice)
     0.047306258  0.000000000  0.000000000     1.000000000  0.000000000  0.000000000
     0.000000000  0.047306258  0.000000000     0.000000000  1.000000000  0.000000000
     0.000000000  0.000000000  0.045220457     0.000000000  0.000000000  1.000000000

  Length of vectors
     0.047306258  0.047306258  0.045220457

  Shift w.r.t. Gamma in fractional coordinates (k-lattice)
     0.000000000  0.000000000  0.000000000

 
 Subroutine IBZKPT returns following result:
 ===========================================
 
 Found      1 irreducible k-points:
 
 Following reciprocal coordinates:
            Coordinates               Weight
  0.000000  0.000000  0.000000      1.000000
 
 Following cartesian coordinates:
            Coordinates               Weight
  0.000000  0.000000  0.000000      1.000000
 


--------------------------------------------------------------------------------------------------------




 Dimension of arrays:
   k-points           NKPTS =      1   k-points in BZ     NKDIM =      1   number of bands    NBANDS=     64
   number of dos      NEDOS =    301   number of ions     NIONS =      2
   non local maximal  LDIM  =      6   non local SUM 2l+1 LMDIM =     18
   total plane-waves  NPLWV = ******
   max r-space proj   IRMAX =   5559   max aug-charges    IRDMAX=  21597
   dimension x,y,z NGX =   160 NGY =  160 NGZ =  168
   dimension x,y,z NGXF=   320 NGYF=  320 NGZF=  336
   support grid    NGXF=   320 NGYF=  320 NGZF=  336
   ions per type =               2
   NGX,Y,Z   is equivalent  to a cutoff of  12.58, 12.58, 12.63 a.u.
   NGXF,Y,Z  is equivalent  to a cutoff of  25.17, 25.17, 25.26 a.u.

 SYSTEM =  MgO-rocksalt                            
 POSCAR =  Ag                                      

 Startparameter for this run:
   NWRITE =      2    write-flag & timer
   PREC   = accura    normal or accurate (medium, high low for compatibility)
   ISTART =      0    job   : 0-new  1-cont  2-samecut
   ICHARG =      2    charge: 1-file 2-atom 10-const
   ISPIN  =      1    spin polarized calculation?
   LNONCOLLINEAR =      F non collinear calculations
   LSORBIT =      F    spin-orbit coupling
   INIWAV =      1    electr: 0-lowe 1-rand  2-diag
   LASPH  =      T    aspherical Exc in radial PAW
 Electronic Relaxation 1
   ENCUT  =  520.0 eV  38.22 Ry    6.18 a.u.  39.30 39.30 41.12*2*pi/ulx,y,z
   ENINI  =  520.0     initial cutoff
   ENAUG  =  412.5 eV  augmentation charge cutoff
   NELM   =    200;   NELMIN=  8; NELMDL= -5     # of ELM steps 
   EDIFF  = 0.1E-05   stopping-criterion for ELM
   LREAL  =      T    real-space projection
   NLSPLINE    = F    spline interpolate recip. space projectors
   LCOMPAT=      F    compatible to vasp.4.4
   GGA_COMPAT  = T    GGA compatible to vasp.4.4-vasp.4.6
   LMAXPAW     = -100 max onsite density
   LMAXMIX     =    2 max onsite mixed and CHGCAR
   VOSKOWN=      0    Vosko Wilk Nusair interpolation
   ROPT   =   -0.00025
 Ionic relaxation
   EDIFFG = 0.1E-04   stopping-criterion for IOM
   NSW    =      0    number of steps for IOM
   NBLOCK =      1;   KBLOCK =      1    inner block; outer block 
   IBRION =     -1    ionic relax: 0-MD 1-quasi-New 2-CG
   NFREE  =      0    steps in history (QN), initial steepest desc. (CG)
   ISIF   =      2    stress and relaxation
   IWAVPR =     10    prediction:  0-non 1-charg 2-wave 3-comb
   ISYM   =      2    0-nonsym 1-usesym 2-fastsym
   LCORR  =      T    Harris-Foulkes like correction to forces

   POTIM  = 0.5000    time-step for ionic-motion
   TEIN   =    0.0    initial temperature
   TEBEG  =    0.0;   TEEND  =   0.0 temperature during run
   SMASS  =  -3.00    Nose mass-parameter (am)
   estimated Nose-frequenzy (Omega)   =  0.10E-29 period in steps = 0.13E+47 mass=  -0.102E-25a.u.
   SCALEE = 1.0000    scale energy and forces
   NPACO  =    256;   APACO  = 10.0  distance and # of slots for P.C.
   PSTRESS=    0.0 pullay stress

  Mass of Ions in am
   POMASS = 107.87
  Ionic Valenz
   ZVAL   =  11.00
  Atomic Wigner-Seitz radii
   RWIGS  =  -1.00
  virtual crystal weights 
   VCA    =   1.00
   NELECT =      22.0000    total number of electrons
   NUPDOWN=      -1.0000    fix difference up-down

 DOS related values:
   EMIN   =  10.00;   EMAX   =-10.00  energy-range for DOS
   EFERMI =   0.00
   ISMEAR =     0;   SIGMA  =   0.05  broadening in eV -4-tet -1-fermi 0-gaus

 Electronic relaxation 2 (details)
   IALGO  =     58    algorithm
   LDIAG  =      T    sub-space diagonalisation (order eigenvalues)
   LSUBROT=      F    optimize rotation matrix (better conditioning)
   TURBO    =      0    0=normal 1=particle mesh
   IRESTART =      0    0=no restart 2=restart with 2 vectors
   NREBOOT  =      0    no. of reboots
   NMIN     =      0    reboot dimension
   EREF     =   0.00    reference energy to select bands
   IMIX   =      4    mixing-type and parameters
     AMIX     =   0.40;   BMIX     =  1.00
     AMIX_MAG =   1.60;   BMIX_MAG =  1.00
     AMIN     =   0.10
     WC   =   100.;   INIMIX=   1;  MIXPRE=   1;  MAXMIX= -45

 Intra band minimization:
   WEIMIN = 0.0000     energy-eigenvalue tresh-hold
   EBREAK =  0.39E-08  absolut break condition
   DEPER  =   0.30     relativ break condition  

   TIME   =   0.40     timestep for ELM

  volume/ion in A,a.u.               =    4940.81     33342.21
  Fermi-wavevector in a.u.,A,eV,Ry     =   0.213767  0.403960  0.621734  0.045696
  Thomas-Fermi vector in A             =   0.985879

 Write flags
   LWAVE        =      F    write WAVECAR
   LDOWNSAMPLE  =      F    k-point downsampling of WAVECAR
   LCHARG       =      F    write CHGCAR
   LVTOT        =      F    write LOCPOT, total local potential
   LVHAR        =      F    write LOCPOT, Hartree potential only
   LELF         =      F    write electronic localiz. function (ELF)
   LORBIT       =      0    0 simple, 1 ext, 2 COOP (PROOUT), +10 PAW based schemes


 Dipole corrections
   LMONO  =      F    monopole corrections only (constant potential shift)
   LDIPOL =      T    correct potential (dipole corrections)
   IDIPOL =      3    1-x, 2-y, 3-z, 4-all directions 
   EPSILON=  1.0000000 bulk dielectric constant

 Exchange correlation treatment:
   GGA     =    RE    GGA type
   LEXCH   =    40    internal setting for exchange type
   LIBXC   =     F    Libxc                    
   VOSKOWN =     0    Vosko Wilk Nusair interpolation
   LHFCALC =     F    Hartree Fock is set to
   LHFONE  =     F    Hartree Fock one center treatment
   AEXX    =    0.0000 exact exchange contribution

 Linear response parameters
   LEPSILON=     F    determine dielectric tensor
   LRPA    =     F    only Hartree local field effects (RPA)
   LNABLA  =     F    use nabla operator in PAW spheres
   LVEL    =     F    velocity operator in full k-point grid
   CSHIFT  =0.1000    complex shift for real part using Kramers Kronig
   OMEGAMAX=  -1.0    maximum frequency
   DEG_THRESHOLD= 0.2000000E-02 threshold for treating states as degnerate
   RTIME   =   -0.100 relaxation time in fs
  (WPLASMAI=    0.000 imaginary part of plasma frequency in eV, 0.658/RTIME)
   DFIELD  = 0.0000000 0.0000000 0.0000000 field for delta impulse in time

  Optional k-point grid parameters
   LKPOINTS_OPT  =     F    use optional k-point grid
   KPOINTS_OPT_MODE=     1    mode for optional k-point grid

 Orbital magnetization related:
   ORBITALMAG=     F  switch on orbital magnetization
   LCHIMAG   =     F  perturbation theory with respect to B field
   DQ        =  0.001000  dq finite difference perturbation B field
   LLRAUG    =     F  two centre corrections for induced B field



--------------------------------------------------------------------------------------------------------


 Static calculation
 charge density and potential will be updated during run
 non-spin polarized calculation
 Conjugate gradient for all bands (Freysoldt, et al. PRB 79, 241103 (2009))
 preconditioned conjugated gradient                                        
 perform sub-space diagonalisation
    before iterative eigenvector-optimisation
 modified Broyden-mixing scheme, WC =      100.0
 initial mixing is a Kerker type mixing with AMIX =  0.4000 and BMIX =      1.0000
 Hartree-type preconditioning will be used
 using additional bands           53
 real space projection scheme for non local part
 use partial core corrections
 no Harris-corrections to forces 
 use gradient corrections 
 use of overlap-Matrix (Vanderbilt PP)
 Gauss-broadening in eV      SIGMA  =   0.05


--------------------------------------------------------------------------------------------------------


  energy-cutoff  :      520.00
  volume of cell :     9881.61
      direct lattice vectors                 reciprocal lattice vectors
    21.138852197  0.000000000  0.000000000     0.047306258  0.000000000  0.000000000
     0.000000000 21.138852197  0.000000000     0.000000000  0.047306258  0.000000000
     0.000000000  0.000000000 22.113885220     0.000000000  0.000000000  0.045220457

  length of vectors
    21.138852197 21.138852197 22.113885220     0.047306258  0.047306258  0.045220457



 k-points in units of 2pi/SCALE and weight: KPOINTS created by Atomic Simulation Env
   0.00000000  0.00000000  0.00000000       1.000

 k-points in reciprocal lattice and weights: KPOINTS created by Atomic Simulation Env
   0.00000000  0.00000000  0.00000000       1.000

 position of ions in fractional coordinates (direct lattice) 
   0.44999999  0.45000002  0.72580057
   0.44999999  0.45000002  0.61004018

 position of ions in cartesian coordinates  (Angst):
   9.51248324  9.51248387 16.05027061
   9.51248324  9.51248387 13.49035848



--------------------------------------------------------------------------------------------------------


 k-point   1 :   0.0000 0.0000 0.0000  plane waves:  265979

 maximum and minimum number of plane-waves per node :     66495    66494

 maximum number of plane-waves:    265979
 maximum index in each direction: 
   IXMAX=   39   IYMAX=   39   IZMAX=   41
   IXMIN=  -39   IYMIN=  -39   IZMIN=  -41


 real space projection operators:
  total allocation   :       1507.36 KBytes
  max/ min on nodes  :        380.11        375.19


 parallel 3D FFT for wavefunctions:
    minimum data exchange during FFTs selected (reduces bandwidth)
 parallel 3D FFT for charge:
    minimum data exchange during FFTs selected (reduces bandwidth)


 total amount of memory used by VASP MPI-rank0   125759. kBytes
=======================================================================

   base      :      30000. kBytes
   nonlr-proj:        655. kBytes
   fftplans  :      38424. kBytes
   grid      :      53473. kBytes
   one-center:         15. kBytes
   wavefun   :       3192. kBytes

     INWAV:  cpu time      0.0000: real time      0.0000
 Broyden mixing: mesh for mixing (old mesh)
   NGX = 79   NGY = 79   NGZ = 83
  (NGX  =320   NGY  =320   NGZ  =336)
  gives a total of 518003 points

 initial charge density was supplied:
 charge density of overlapping atoms calculated
 number of electron      22.0000000 magnetization 
 keeping initial charge density in first step


--------------------------------------------------------------------------------------------------------


 Maximum index for non-local projection operator         1365
 Maximum index for augmentation-charges            0 (set IRDMAX)


--------------------------------------------------------------------------------------------------------


 First call to EWALD:  gamma=   0.083
 Maximum number of real-space cells 3x 3x 3
 Maximum number of reciprocal cells 3x 3x 3

    FEWALD:  cpu time      0.0007: real time      0.0007


--------------------------------------- Iteration      1(   1)  ---------------------------------------


    POTLOK:  cpu time      0.1917: real time      0.1918
    SETDIJ:  cpu time      0.1116: real time      0.1117
    TRIAL :  cpu time      0.4311: real time      0.4318
    CORREC:  cpu time      0.0012: real time      0.0012
    --------------------------------------------
      LOOP:  cpu time      0.7379: real time      0.7389

 eigenvalue-minimisations  :   128
 total energy-change (2. order) : 0.1568275E+03  (-0.3775070E+03)
 number of electron      22.0000000 magnetization 
 augmentation part       22.0000000 magnetization 

 DIPCOR: dipole corrections for dipol
 direction  3 min pos     1,
 dipolmoment           0.000000      0.000000     -0.000090 electrons x Angstroem
 Tr[quadrupol]     -3979.744761

 energy correction for charged system         0.000000 eV
 dipol+quadrupol energy correction           -0.000000 eV
 added-field ion interaction          0.000145 eV  (added to PSCEN)


 Free energy of the ion-electron system (eV)
  ---------------------------------------------------
  alpha Z        PSCENC =         0.34445265
  Ewald energy   TEWEN  =       222.34744481
  -Hartree energ DENC   =     -2204.32312155
  -exchange      EXHF   =         0.00000000
  -V(xc)+E(xc)   XCENC  =       -24.98147202
  PAW double counting   =      2008.24765832    -1914.15143096
  entropy T*S    EENTRO =        -0.03243937
  eigenvalues    EBANDS =        -4.00658040
  atomic energy  EATOM  =      2073.38295078
  ---------------------------------------------------
  free energy    TOTEN  =       156.82746227 eV

  energy without entropy =      156.85990164  energy(sigma->0) =      156.84368195


--------------------------------------------------------------------------------------------------------




--------------------------------------- Iteration      1(   2)  ---------------------------------------


    TRIAL :  cpu time      0.9296: real time      0.9298
    CORREC:  cpu time      0.0004: real time      0.0004
    --------------------------------------------
      LOOP:  cpu time      0.9361: real time      0.9432

 eigenvalue-minimisations  :   256
 total energy-change (2. order) :-0.1514590E+03  (-0.1507761E+03)
 number of electron      22.0000000 magnetization 
 augmentation part       22.0000000 magnetization 

 DIPCOR: dipole corrections for dipol
 direction  3 min pos     1,
 dipolmoment           0.000000      0.000000     -0.000090 electrons x Angstroem
 Tr[quadrupol]     -3979.744761

 energy correction for charged system         0.000000 eV
 dipol+quadrupol energy correction           -0.000000 eV
 added-field ion interaction          0.000145 eV  (added to PSCEN)


 Free energy of the ion-electron system (eV)
  ---------------------------------------------------
  alpha Z        PSCENC =         0.34445265
  Ewald energy   TEWEN  =       222.34744481
  -Hartree energ DENC   =     -2204.32312155
  -exchange      EXHF   =         0.00000000
  -V(xc)+E(xc)   XCENC  =       -24.98147202
  PAW double counting   =      2008.24765832    -1914.15143096
  entropy T*S    EENTRO =        -0.00000000
  eigenvalues    EBANDS =      -155.49800193
  atomic energy  EATOM  =      2073.38295078
  ---------------------------------------------------
  free energy    TOTEN  =         5.36848011 eV

  energy without entropy =        5.36848011  energy(sigma->0) =        5.36848011


--------------------------------------------------------------------------------------------------------




--------------------------------------- Iteration      1(   3)  ---------------------------------------


    TRIAL :  cpu time      0.4208: real time      0.4208
    CORREC:  cpu time      0.0003: real time      0.0003
    --------------------------------------------
      LOOP:  cpu time      0.4251: real time      0.4337

 eigenvalue-minimisations  :   128
 total energy-change (2. order) :-0.7551308E+01  (-0.7551308E+01)
 number of electron      22.0000000 magnetization 
 augmentation part       22.0000000 magnetization 

 DIPCOR: dipole corrections for dipol
 direction  3 min pos     1,
 dipolmoment           0.000000      0.000000     -0.000090 electrons x Angstroem
 Tr[quadrupol]     -3979.744761

 energy correction for charged system         0.000000 eV
 dipol+quadrupol energy correction           -0.000000 eV
 added-field ion interaction          0.000145 eV  (added to PSCEN)


 Free energy of the ion-electron system (eV)
  ---------------------------------------------------
  alpha Z        PSCENC =         0.34445265
  Ewald energy   TEWEN  =       222.34744481
  -Hartree energ DENC   =     -2204.32312155
  -exchange      EXHF   =         0.00000000
  -V(xc)+E(xc)   XCENC  =       -24.98147202
  PAW double counting   =      2008.24765832    -1914.15143096
  entropy T*S    EENTRO =        -0.00000000
  eigenvalues    EBANDS =      -163.04931020
  atomic energy  EATOM  =      2073.38295078
  ---------------------------------------------------
  free energy    TOTEN  =        -2.18282816 eV

  energy without entropy =       -2.18282816  energy(sigma->0) =       -2.18282816


--------------------------------------------------------------------------------------------------------




--------------------------------------- Iteration      1(   4)  ---------------------------------------


    TRIAL :  cpu time      0.6333: real time      0.6334
    CORREC:  cpu time      0.0003: real time      0.0003
    --------------------------------------------
      LOOP:  cpu time      0.6456: real time      0.6461

 eigenvalue-minimisations  :   192
 total energy-change (2. order) :-0.3300852E-01  (-0.3300852E-01)
 number of electron      22.0000000 magnetization 
 augmentation part       22.0000000 magnetization 

 DIPCOR: dipole corrections for dipol
 direction  3 min pos     1,
 dipolmoment           0.000000      0.000000     -0.000090 electrons x Angstroem
 Tr[quadrupol]     -3979.744761

 energy correction for charged system         0.000000 eV
 dipol+quadrupol energy correction           -0.000000 eV
 added-field ion interaction          0.000145 eV  (added to PSCEN)


 Free energy of the ion-electron system (eV)
  ---------------------------------------------------
  alpha Z        PSCENC =         0.34445265
  Ewald energy   TEWEN  =       222.34744481
  -Hartree energ DENC   =     -2204.32312155
  -exchange      EXHF   =         0.00000000
  -V(xc)+E(xc)   XCENC  =       -24.98147202
  PAW double counting   =      2008.24765832    -1914.15143096
  entropy T*S    EENTRO =        -0.00000000
  eigenvalues    EBANDS =      -163.08231873
  atomic energy  EATOM  =      2073.38295078
  ---------------------------------------------------
  free energy    TOTEN  =        -2.21583669 eV

  energy without entropy =       -2.21583669  energy(sigma->0) =       -2.21583669


--------------------------------------------------------------------------------------------------------




--------------------------------------- Iteration      1(   5)  ---------------------------------------


    TRIAL :  cpu time      0.6323: real time      0.6325
    CORREC:  cpu time      0.0003: real time      0.0003
    CHARGE:  cpu time      0.6124: real time      0.6130
    --------------------------------------------
      LOOP:  cpu time      1.2494: real time      1.2584

 eigenvalue-minimisations  :   192
 total energy-change (2. order) :-0.2345161E-04  (-0.2345093E-04)
 number of electron      22.0000009 magnetization 
 augmentation part       10.6527149 magnetization 

 DIPCOR: dipole corrections for dipol
 direction  3 min pos     1,
 dipolmoment           0.000000      0.000000     -0.000090 electrons x Angstroem
 Tr[quadrupol]     -3979.744761

 energy correction for charged system         0.000000 eV
 dipol+quadrupol energy correction           -0.000000 eV
 added-field ion interaction          0.000145 eV  (added to PSCEN)


 Free energy of the ion-electron system (eV)
  ---------------------------------------------------
  alpha Z        PSCENC =         0.34445265
  Ewald energy   TEWEN  =       222.34744481
  -Hartree energ DENC   =     -2204.32312155
  -exchange      EXHF   =         0.00000000
  -V(xc)+E(xc)   XCENC  =       -24.98147202
  PAW double counting   =      2008.24765832    -1914.15143096
  entropy T*S    EENTRO =        -0.00000000
  eigenvalues    EBANDS =      -163.08234218
  atomic energy  EATOM  =      2073.38295078
  ---------------------------------------------------
  free energy    TOTEN  =        -2.21586014 eV

  energy without entropy =       -2.21586014  energy(sigma->0) =       -2.21586014


--------------------------------------------------------------------------------------------------------




--------------------------------------- Iteration      1(   6)  ---------------------------------------


    POTLOK:  cpu time      0.1508: real time      0.1508
    SETDIJ:  cpu time      0.1141: real time      0.1142
    TRIAL :  cpu time      0.2374: real time      0.2380
    CORREC:  cpu time      0.9507: real time      0.9510
    CHARGE:  cpu time      0.6020: real time      0.6021
    --------------------------------------------
      LOOP:  cpu time      2.0679: real time      2.0691

 eigenvalue-minimisations  :     0
 total energy-change (2. order) : 0.5248496E+00  (-0.2538423E+00)
 number of electron      22.0000009 magnetization 
 augmentation part       10.6621875 magnetization 

 DIPCOR: dipole corrections for dipol
 direction  3 min pos     1,
 dipolmoment           0.000000      0.000000     -0.000717 electrons x Angstroem
 Tr[quadrupol]     -3981.745183

 energy correction for charged system         0.000000 eV
 dipol+quadrupol energy correction           -0.000000 eV
 added-field ion interaction          0.001158 eV  (added to PSCEN)


 Free energy of the ion-electron system (eV)
  ---------------------------------------------------
  alpha Z        PSCENC =         0.34431779
  Ewald energy   TEWEN  =       222.34744481
  -Hartree energ DENC   =     -2221.44516221
  -exchange      EXHF   =         0.00000000
  -V(xc)+E(xc)   XCENC  =       -24.74233267
  PAW double counting   =      2117.44382903    -2024.97586713
  entropy T*S    EENTRO =        -0.00000000
  eigenvalues    EBANDS =      -144.04619093
  atomic energy  EATOM  =      2073.38295078
  ---------------------------------------------------
  free energy    TOTEN  =        -1.69101052 eV

  energy without entropy =       -1.69101052  energy(sigma->0) =       -1.69101052


--------------------------------------------------------------------------------------------------------




--------------------------------------- Iteration      1(   7)  ---------------------------------------


    POTLOK:  cpu time      0.1680: real time      0.1681
    SETDIJ:  cpu time      0.1100: real time      0.1100
    TRIAL :  cpu time      0.2320: real time      0.2320
    CORREC:  cpu time      0.9481: real time      0.9485
    CHARGE:  cpu time      0.5998: real time      0.5999
    --------------------------------------------
      LOOP:  cpu time      2.0626: real time      2.0716

 eigenvalue-minimisations  :     0
 total energy-change (2. order) :-0.2537135E+00  (-0.2907772E-01)
 number of electron      22.0000009 magnetization 
 augmentation part       10.6938588 magnetization 

 DIPCOR: dipole corrections for dipol
 direction  3 min pos     1,
 dipolmoment           0.000000      0.000000     -0.000690 electrons x Angstroem
 Tr[quadrupol]     -3981.553376

 energy correction for charged system         0.000000 eV
 dipol+quadrupol energy correction           -0.000000 eV
 added-field ion interaction          0.001115 eV  (added to PSCEN)


 Free energy of the ion-electron system (eV)
  ---------------------------------------------------
  alpha Z        PSCENC =         0.34589839
  Ewald energy   TEWEN  =       222.34744481
  -Hartree energ DENC   =     -2211.52648680
  -exchange      EXHF   =         0.00000000
  -V(xc)+E(xc)   XCENC  =       -24.91254154
  PAW double counting   =      2103.84885479    -2011.21408472
  entropy T*S    EENTRO =        -0.00000000
  eigenvalues    EBANDS =      -154.21675971
  atomic energy  EATOM  =      2073.38295078
  ---------------------------------------------------
  free energy    TOTEN  =        -1.94472399 eV

  energy without entropy =       -1.94472399  energy(sigma->0) =       -1.94472399


--------------------------------------------------------------------------------------------------------




--------------------------------------- Iteration      1(   8)  ---------------------------------------


    POTLOK:  cpu time      0.1686: real time      0.1687
    SETDIJ:  cpu time      0.1077: real time      0.1077
    TRIAL :  cpu time      0.2318: real time      0.2318
    CORREC:  cpu time      0.9468: real time      0.9469
    CHARGE:  cpu time      0.5913: real time      0.5914
    --------------------------------------------
      LOOP:  cpu time      2.0593: real time      2.0598

 eigenvalue-minimisations  :     0
 total energy-change (2. order) :-0.2915864E-01  (-0.9077325E-02)
 number of electron      22.0000009 magnetization 
 augmentation part       10.6704329 magnetization 

 DIPCOR: dipole corrections for dipol
 direction  3 min pos     1,
 dipolmoment           0.000000      0.000000     -0.000185 electrons x Angstroem
 Tr[quadrupol]     -3981.394851

 energy correction for charged system         0.000000 eV
 dipol+quadrupol energy correction           -0.000000 eV
 added-field ion interaction          0.000299 eV  (added to PSCEN)


 Free energy of the ion-electron system (eV)
  ---------------------------------------------------
  alpha Z        PSCENC =         0.34509490
  Ewald energy   TEWEN  =       222.34744481
  -Hartree energ DENC   =     -2215.26944551
  -exchange      EXHF   =         0.00000000
  -V(xc)+E(xc)   XCENC  =       -24.79153116
  PAW double counting   =      2106.16678756    -2013.57027627
  entropy T*S    EENTRO =        -0.00000000
  eigenvalues    EBANDS =      -150.58490775
  atomic energy  EATOM  =      2073.38295078
  ---------------------------------------------------
  free energy    TOTEN  =        -1.97388263 eV

  energy without entropy =       -1.97388263  energy(sigma->0) =       -1.97388263


--------------------------------------------------------------------------------------------------------




--------------------------------------- Iteration      1(   9)  ---------------------------------------


    POTLOK:  cpu time      0.1626: real time      0.1627
    SETDIJ:  cpu time      0.1132: real time      0.1132
    TRIAL :  cpu time      0.2317: real time      0.2317
    CORREC:  cpu time      0.9342: real time      0.9343
    CHARGE:  cpu time      0.5939: real time      0.5940
    --------------------------------------------
      LOOP:  cpu time      2.0404: real time      2.0492

 eigenvalue-minimisations  :     0
 total energy-change (2. order) :-0.9067991E-02  (-0.3119733E-02)
 number of electron      22.0000009 magnetization 
 augmentation part       10.6780751 magnetization 

 DIPCOR: dipole corrections for dipol
 direction  3 min pos     1,
 dipolmoment           0.000000      0.000000     -0.000043 electrons x Angstroem
 Tr[quadrupol]     -3981.333044

 energy correction for charged system         0.000000 eV
 dipol+quadrupol energy correction           -0.000000 eV
 added-field ion interaction          0.000069 eV  (added to PSCEN)


 Free energy of the ion-electron system (eV)
  ---------------------------------------------------
  alpha Z        PSCENC =         0.34453353
  Ewald energy   TEWEN  =       222.34744481
  -Hartree energ DENC   =     -2211.09005497
  -exchange      EXHF   =         0.00000000
  -V(xc)+E(xc)   XCENC  =       -24.90809925
  PAW double counting   =      2101.77435847    -2009.09055885
  entropy T*S    EENTRO =        -0.00000000
  eigenvalues    EBANDS =      -154.74352514
  atomic energy  EATOM  =      2073.38295078
  ---------------------------------------------------
  free energy    TOTEN  =        -1.98295062 eV

  energy without entropy =       -1.98295062  energy(sigma->0) =       -1.98295062


--------------------------------------------------------------------------------------------------------




--------------------------------------- Iteration      1(  10)  ---------------------------------------


    POTLOK:  cpu time      0.1559: real time      0.1559
    SETDIJ:  cpu time      0.1090: real time      0.1090
    TRIAL :  cpu time      0.2310: real time      0.2310
    CORREC:  cpu time      0.9309: real time      0.9310
    CHARGE:  cpu time      0.5945: real time      0.5946
    --------------------------------------------
      LOOP:  cpu time      2.0291: real time      2.0384

 eigenvalue-minimisations  :     0
 total energy-change (2. order) :-0.3107329E-02  (-0.5968413E-03)
 number of electron      22.0000009 magnetization 
 augmentation part       10.6779110 magnetization 

 DIPCOR: dipole corrections for dipol
 direction  3 min pos     1,
 dipolmoment           0.000000      0.000000     -0.000013 electrons x Angstroem
 Tr[quadrupol]     -3981.293348

 energy correction for charged system         0.000000 eV
 dipol+quadrupol energy correction           -0.000000 eV
 added-field ion interaction          0.000020 eV  (added to PSCEN)


 Free energy of the ion-electron system (eV)
  ---------------------------------------------------
  alpha Z        PSCENC =         0.34432934
  Ewald energy   TEWEN  =       222.34744481
  -Hartree energ DENC   =     -2211.76426365
  -exchange      EXHF   =         0.00000000
  -V(xc)+E(xc)   XCENC  =       -24.88833122
  PAW double counting   =      2102.64430422    -2009.94747481
  entropy T*S    EENTRO =        -0.00000000
  eigenvalues    EBANDS =      -154.10501743
  atomic energy  EATOM  =      2073.38295078
  ---------------------------------------------------
  free energy    TOTEN  =        -1.98605795 eV

  energy without entropy =       -1.98605795  energy(sigma->0) =       -1.98605795


--------------------------------------------------------------------------------------------------------




--------------------------------------- Iteration      1(  11)  ---------------------------------------


    POTLOK:  cpu time      0.1532: real time      0.1532
    SETDIJ:  cpu time      0.1133: real time      0.1133
    TRIAL :  cpu time      0.2309: real time      0.2310
    CORREC:  cpu time      0.9252: real time      0.9253
    CHARGE:  cpu time      0.5937: real time      0.5937
    --------------------------------------------
      LOOP:  cpu time      2.0211: real time      2.0293

 eigenvalue-minimisations  :     0
 total energy-change (2. order) :-0.5976153E-03  (-0.9137024E-04)
 number of electron      22.0000009 magnetization 
 augmentation part       10.6775399 magnetization 

 DIPCOR: dipole corrections for dipol
 direction  3 min pos     1,
 dipolmoment           0.000000      0.000000     -0.000016 electrons x Angstroem
 Tr[quadrupol]     -3981.283642

 energy correction for charged system         0.000000 eV
 dipol+quadrupol energy correction           -0.000000 eV
 added-field ion interaction          0.000026 eV  (added to PSCEN)


 Free energy of the ion-electron system (eV)
  ---------------------------------------------------
  alpha Z        PSCENC =         0.34433258
  Ewald energy   TEWEN  =       222.34744481
  -Hartree energ DENC   =     -2211.58339015
  -exchange      EXHF   =         0.00000000
  -V(xc)+E(xc)   XCENC  =       -24.89353900
  PAW double counting   =      2102.14444807    -2009.43830338
  entropy T*S    EENTRO =        -0.00000000
  eigenvalues    EBANDS =      -154.29059929
  atomic energy  EATOM  =      2073.38295078
  ---------------------------------------------------
  free energy    TOTEN  =        -1.98665556 eV

  energy without entropy =       -1.98665556  energy(sigma->0) =       -1.98665556


--------------------------------------------------------------------------------------------------------




--------------------------------------- Iteration      1(  12)  ---------------------------------------


    POTLOK:  cpu time      0.1557: real time      0.1557
    SETDIJ:  cpu time      0.1084: real time      0.1084
    TRIAL :  cpu time      0.2312: real time      0.2312
    CORREC:  cpu time      0.9327: real time      0.9329
    CHARGE:  cpu time      0.5918: real time      0.5919
    --------------------------------------------
      LOOP:  cpu time      2.0264: real time      2.0352

 eigenvalue-minimisations  :     0
 total energy-change (2. order) :-0.9200189E-04  (-0.1310512E-04)
 number of electron      22.0000009 magnetization 
 augmentation part       10.6782366 magnetization 

 DIPCOR: dipole corrections for dipol
 direction  3 min pos     1,
 dipolmoment           0.000000      0.000000     -0.000017 electrons x Angstroem
 Tr[quadrupol]     -3981.283652

 energy correction for charged system         0.000000 eV
 dipol+quadrupol energy correction           -0.000000 eV
 added-field ion interaction          0.000028 eV  (added to PSCEN)


 Free energy of the ion-electron system (eV)
  ---------------------------------------------------
  alpha Z        PSCENC =         0.34433622
  Ewald energy   TEWEN  =       222.34744481
  -Hartree energ DENC   =     -2211.49976809
  -exchange      EXHF   =         0.00000000
  -V(xc)+E(xc)   XCENC  =       -24.89601555
  PAW double counting   =      2101.84940872    -2009.14122913
  entropy T*S    EENTRO =        -0.00000000
  eigenvalues    EBANDS =      -154.37387534
  atomic energy  EATOM  =      2073.38295078
  ---------------------------------------------------
  free energy    TOTEN  =        -1.98674757 eV

  energy without entropy =       -1.98674757  energy(sigma->0) =       -1.98674757


--------------------------------------------------------------------------------------------------------




--------------------------------------- Iteration      1(  13)  ---------------------------------------


    POTLOK:  cpu time      0.1526: real time      0.1526
    SETDIJ:  cpu time      0.1113: real time      0.1113
    TRIAL :  cpu time      0.2307: real time      0.2307
    CORREC:  cpu time      0.9291: real time      0.9292
    CHARGE:  cpu time      0.5917: real time      0.5919
    --------------------------------------------
      LOOP:  cpu time      2.0213: real time      2.0302

 eigenvalue-minimisations  :     0
 total energy-change (2. order) :-0.1242018E-04  (-0.1916828E-05)
 number of electron      22.0000009 magnetization 
 augmentation part       10.6779154 magnetization 

 DIPCOR: dipole corrections for dipol
 direction  3 min pos     1,
 dipolmoment           0.000000      0.000000     -0.000017 electrons x Angstroem
 Tr[quadrupol]     -3981.283658

 energy correction for charged system         0.000000 eV
 dipol+quadrupol energy correction           -0.000000 eV
 added-field ion interaction          0.000027 eV  (added to PSCEN)


 Free energy of the ion-electron system (eV)
  ---------------------------------------------------
  alpha Z        PSCENC =         0.34433465
  Ewald energy   TEWEN  =       222.34744481
  -Hartree energ DENC   =     -2211.60560722
  -exchange      EXHF   =         0.00000000
  -V(xc)+E(xc)   XCENC  =       -24.89305858
  PAW double counting   =      2101.89995719    -2009.19318164
  entropy T*S    EENTRO =        -0.00000000
  eigenvalues    EBANDS =      -154.26959998
  atomic energy  EATOM  =      2073.38295078
  ---------------------------------------------------
  free energy    TOTEN  =        -1.98675999 eV

  energy without entropy =       -1.98675999  energy(sigma->0) =       -1.98675999


--------------------------------------------------------------------------------------------------------




--------------------------------------- Iteration      1(  14)  ---------------------------------------


    POTLOK:  cpu time      0.1527: real time      0.1528
    SETDIJ:  cpu time      0.1135: real time      0.1135
    TRIAL :  cpu time      0.2312: real time      0.2312
    CORREC:  cpu time      0.9278: real time      0.9279
    CHARGE:  cpu time      0.5891: real time      0.5892
    --------------------------------------------
      LOOP:  cpu time      2.0275: real time      2.0279

 eigenvalue-minimisations  :     0
 total energy-change (2. order) :-0.1777742E-05  (-0.4746863E-06)
 number of electron      22.0000009 magnetization 
 augmentation part       10.6777963 magnetization 

 DIPCOR: dipole corrections for dipol
 direction  3 min pos     1,
 dipolmoment           0.000000      0.000000     -0.000017 electrons x Angstroem
 Tr[quadrupol]     -3981.283725

 energy correction for charged system         0.000000 eV
 dipol+quadrupol energy correction           -0.000000 eV
 added-field ion interaction          0.000027 eV  (added to PSCEN)


 Free energy of the ion-electron system (eV)
  ---------------------------------------------------
  alpha Z        PSCENC =         0.34433424
  Ewald energy   TEWEN  =       222.34744481
  -Hartree energ DENC   =     -2211.55520915
  -exchange      EXHF   =         0.00000000
  -V(xc)+E(xc)   XCENC  =       -24.89449992
  PAW double counting   =      2101.83425305    -2009.12663092
  entropy T*S    EENTRO =        -0.00000000
  eigenvalues    EBANDS =      -154.31940466
  atomic energy  EATOM  =      2073.38295078
  ---------------------------------------------------
  free energy    TOTEN  =        -1.98676176 eV

  energy without entropy =       -1.98676176  energy(sigma->0) =       -1.98676176


--------------------------------------------------------------------------------------------------------




--------------------------------------- Iteration      1(  15)  ---------------------------------------


    POTLOK:  cpu time      0.1534: real time      0.1534
    SETDIJ:  cpu time      0.1116: real time      0.1116
    TRIAL :  cpu time      0.2311: real time      0.2311
    CORREC:  cpu time      0.9259: real time      0.9260
    EDDIAG:  cpu time      0.0980: real time      0.0984
    CHARGE:  cpu time      0.5909: real time      0.5910
    --------------------------------------------
      LOOP:  cpu time      2.1235: real time      2.1244

 eigenvalue-minimisations  :     0
 total energy-change (2. order) :-0.4245771E-06  (-0.4449719E-06)
 number of electron      22.0000009 magnetization 
 augmentation part       10.6778405 magnetization 

 DIPCOR: dipole corrections for dipol
 direction  3 min pos     1,
 dipolmoment           0.000000      0.000000     -0.000017 electrons x Angstroem
 Tr[quadrupol]     -3981.283978

 energy correction for charged system         0.000000 eV
 dipol+quadrupol energy correction           -0.000000 eV
 added-field ion interaction          0.000027 eV  (added to PSCEN)


 Free energy of the ion-electron system (eV)
  ---------------------------------------------------
  alpha Z        PSCENC =         0.34433415
  Ewald energy   TEWEN  =       222.34744481
  -Hartree energ DENC   =     -2211.53838155
  -exchange      EXHF   =         0.00000000
  -V(xc)+E(xc)   XCENC  =       -24.89498748
  PAW double counting   =      2101.81097394    -2009.10306882
  entropy T*S    EENTRO =        -0.00000000
  eigenvalues    EBANDS =      -154.33602803
  atomic energy  EATOM  =      2073.38295078
  ---------------------------------------------------
  free energy    TOTEN  =        -1.98676219 eV

  energy without entropy =       -1.98676219  energy(sigma->0) =       -1.98676219


--------------------------------------------------------------------------------------------------------


  average scaling for gradient   1.5693


 average (electrostatic) potential at core
  the test charge radii are     1.1249
  (the norm of the test charge is              1.0000)
       1 -82.0390       2 -82.0390



 E-fermi :  -4.7838     XC(G=0):  -0.1733     alpha+bet : -0.0465

 Fermi energy:        -4.7838297369

 k-point     1 :       0.0000    0.0000    0.0000
  band No.  band energies     occupation 
      1      -8.2277      2.00000
      2      -7.7190      2.00000
      3      -7.7190      2.00000
      4      -7.2020      2.00000
      5      -7.2019      2.00000
      6      -7.0063      2.00000
      7      -7.0062      2.00000
      8      -6.7383      2.00000
      9      -6.7383      2.00000
     10      -6.5815      2.00000
     11      -5.0240      2.00000
     12      -2.9805      0.00000
     13      -1.0153      0.00000
     14      -1.0153      0.00000
     15      -0.6076      0.00000
     16       0.0305      0.00000
     17       0.2548      0.00000
     18       0.2716      0.00000
     19       0.3070      0.00000
     20       0.3070      0.00000
     21       0.3366      0.00000
     22       0.3623      0.00000
     23       0.3624      0.00000
     24       0.3937      0.00000
     25       0.5641      0.00000
     26       0.6005      0.00000
     27       0.6177      0.00000
     28       0.6341      0.00000
     29       0.6563      0.00000
     30       0.6644      0.00000
     31       0.6646      0.00000
     32       0.7036      0.00000
     33       0.7036      0.00000
     34       0.7448      0.00000
     35       0.7749      0.00000
     36       0.7751      0.00000
     37       0.9147      0.00000
     38       0.9506      0.00000
     39       0.9541      0.00000
     40       1.0114      0.00000
     41       1.0122      0.00000
     42       1.0123      0.00000
     43       1.1100      0.00000
     44       1.1101      0.00000
     45       1.1154      0.00000
     46       1.2013      0.00000
     47       1.2224      0.00000
     48       1.3336      0.00000
     49       1.3338      0.00000
     50       1.4073      0.00000
     51       1.4315      0.00000
     52       1.4850      0.00000
     53       1.4851      0.00000
     54       1.4978      0.00000
     55       1.5102      0.00000
     56       1.5198      0.00000
     57       1.5391      0.00000
     58       1.5884      0.00000
     59       1.5906      0.00000
     60       1.5909      0.00000
     61       1.6120      0.00000
     62       1.6218      0.00000
     63       1.6219      0.00000
     64       1.6241      0.00000


--------------------------------------------------------------------------------------------------------


 soft charge-density along one line, spin component           1
         0         1         2         3         4         5         6         7         8         9
 total charge-density along one line

 pseudopotential strength for first ion, spin component:           1
-10.184  -0.000   0.000   0.000   0.000 -10.165  -0.000   0.000
 -0.000 -10.212   0.000  -0.000  -0.000  -0.000 -10.191   0.000
  0.000   0.000 -10.230  -0.000   0.000   0.000   0.000 -10.208
  0.000  -0.000  -0.000 -10.212  -0.000   0.000  -0.000  -0.000
  0.000  -0.000   0.000  -0.000 -10.184   0.000  -0.000   0.000
-10.165  -0.000   0.000   0.000   0.000 -10.121  -0.000   0.000
 -0.000 -10.191   0.000  -0.000  -0.000  -0.000 -10.146   0.000
  0.000   0.000 -10.208  -0.000   0.000   0.000   0.000 -10.162
  0.000  -0.000  -0.000 -10.191  -0.000   0.000  -0.000  -0.000
  0.000  -0.000   0.000  -0.000 -10.165   0.000  -0.000   0.000
  0.000  -0.000   0.013   0.000   0.000   0.000  -0.000   0.013
  0.000  -0.000   0.021   0.000   0.000   0.000  -0.000   0.021
 -0.000   0.043  -0.000  -0.000  -0.000  -0.000   0.042  -0.000
 -0.000   0.000   0.047  -0.000  -0.000  -0.000   0.000   0.046
  0.000  -0.000   0.000   0.043  -0.000   0.000  -0.000   0.000
 -0.000   0.051  -0.000  -0.000  -0.000  -0.000   0.049  -0.000
 -0.000   0.000   0.057  -0.000  -0.000  -0.000   0.000   0.055
  0.000  -0.000   0.000   0.051  -0.000   0.000  -0.000   0.000
 total augmentation occupancy for first ion, spin component:           1
  2.151   0.000  -0.000  -0.000   0.000  -0.083   0.000  -0.000   0.000   0.000  -0.000   0.000   0.000  -0.000  -0.000  -0.000
  0.000   2.275  -0.000   0.000  -0.000   0.000  -0.280   0.000   0.000   0.000  -0.000  -0.000   0.013   0.000   0.000   0.026
 -0.000   0.000   2.655   0.000  -0.000   0.000   0.000  -0.781   0.000   0.000  -1.021   0.152  -0.000   0.148   0.000   0.000
 -0.000   0.000   0.000   2.275   0.000   0.000  -0.000   0.000  -0.280   0.000  -0.000  -0.000  -0.000   0.000   0.013  -0.000
  0.000  -0.000  -0.000   0.000   2.152   0.000   0.000   0.000  -0.000  -0.083   0.000  -0.000   0.000  -0.000   0.000  -0.000
 -0.083   0.000   0.000   0.000   0.000   0.014   0.000  -0.000  -0.000  -0.000   0.000   0.000   0.000   0.000  -0.000   0.000
  0.000  -0.280   0.000  -0.000   0.000   0.000   0.276   0.000  -0.000   0.000  -0.000   0.000  -0.041  -0.000   0.000   0.003
 -0.000   0.000  -0.781   0.000   0.000  -0.000   0.000   0.887  -0.000  -0.000   0.876  -0.127   0.000  -0.205   0.000   0.000
  0.000   0.000   0.000  -0.280  -0.000  -0.000  -0.000  -0.000   0.276   0.000   0.000   0.000   0.000   0.000  -0.041   0.000
  0.000   0.000   0.000   0.000  -0.083  -0.000   0.000  -0.000   0.000   0.014  -0.000   0.000  -0.000   0.000   0.000   0.000
 -0.000  -0.000  -1.021  -0.000   0.000   0.000  -0.000   0.876   0.000  -0.000   1.674  -0.175   0.000  -0.248   0.000   0.000
  0.000  -0.000   0.152  -0.000  -0.000   0.000   0.000  -0.127   0.000   0.000  -0.175   0.021  -0.000   0.031   0.000   0.000
  0.000   0.013  -0.000  -0.000   0.000   0.000  -0.041   0.000   0.000  -0.000   0.000  -0.000   0.007   0.000   0.000  -0.001
 -0.000   0.000   0.148  -0.000  -0.000   0.000  -0.000  -0.205   0.000   0.000  -0.248   0.031  -0.000   0.051   0.000  -0.000
 -0.000   0.000   0.000   0.013   0.000  -0.000   0.000   0.000  -0.041   0.000   0.000   0.000   0.000   0.000   0.007  -0.000
 -0.000   0.026   0.000  -0.000  -0.000   0.000   0.003   0.000   0.000   0.000   0.000   0.000  -0.001  -0.000  -0.000   0.000
 -0.000  -0.000   0.015   0.000  -0.000  -0.000   0.000   0.019   0.000  -0.000   0.020  -0.002  -0.000  -0.005  -0.000   0.000
 -0.000   0.000  -0.000   0.026   0.000  -0.000   0.000   0.000   0.003   0.000  -0.000   0.000   0.000   0.000  -0.001   0.000


------------------------ aborting loop because EDIFF is reached ----------------------------------------


    FORLOC:  cpu time      0.0021: real time      0.0021
    FORNL :  cpu time      0.1172: real time      0.1173
    STRESS:  cpu time      0.3528: real time      0.3530
    FORCOR:  cpu time      0.1089: real time      0.1090
    OFIELD:  cpu time      0.0007: real time      0.0007

  FORCE on cell =-STRESS in cart. coord.  units (eV):
  Direction    XX          YY          ZZ          XY          YZ          ZX
  --------------------------------------------------------------------------------------
  Alpha Z     0.34431     0.34431     0.34431
  Ewald    -147.82980  -147.82980   518.00709    -0.00000    -0.00000     0.00000
  Hartree   577.04007   577.04007  1057.47012    -0.00000     0.00000    -0.00000
  E(xc)    -116.65559  -116.65559  -115.58527     0.00000    -0.00000    -0.00000
  Local    -749.64926  -749.64926 -1885.49314     0.00000    -0.00000     0.00000
  n-local   -24.49314   -24.49314   -27.60070    -0.00000    -0.00000     0.00000
  augment   183.66191   183.66191   181.72080     0.00000    -0.00000    -0.00000
  Kinetic   277.56455   277.56455   271.63004     0.00000     0.00000    -0.00000
  Fock        0.00000     0.00000     0.00000     0.00000     0.00000     0.00000
  -------------------------------------------------------------------------------------
  Total      -0.01694    -0.01694     0.49325    -0.00000    -0.00000     0.00000
  in kB      -0.00275    -0.00275     0.07997    -0.00000    -0.00000     0.00000
  external pressure =        0.02 kB  Pullay stress =        0.00 kB


 VOLUME and BASIS-vectors are now :
 -----------------------------------------------------------------------------
  energy-cutoff  :      520.00
  volume of cell :     9881.61
      direct lattice vectors                 reciprocal lattice vectors
    21.138852197  0.000000000  0.000000000     0.047306258  0.000000000  0.000000000
     0.000000000 21.138852197  0.000000000     0.000000000  0.047306258  0.000000000
     0.000000000  0.000000000 22.113885220     0.000000000  0.000000000  0.045220457

  length of vectors
    21.138852197 21.138852197 22.113885220     0.047306258  0.047306258  0.045220457


 FORCES acting on ions:
    Electron-Ion                     Ewald-Force                    Non-Local-Force
 -----------------------------------------------------------------------------------------------
   0.136E-04 -.114E-03 -.272E+03   -.671E-16 -.572E-16 0.264E+03   0.106E-21 0.132E-22 0.767E+01
   0.136E-04 -.114E-03 0.272E+03   0.890E-17 0.544E-16 -.264E+03   -.106E-21 0.662E-23 -.767E+01
 -----------------------------------------------------------------------------------------------
   0.278E-04 -.231E-03 -.354E-04   -.582E-16 -.280E-17 0.000E+00   0.000E+00 0.199E-22 0.000E+00


 POSITION                                       TOTAL-FORCE (eV/Angst)
 -----------------------------------------------------------------------------------
      9.51248      9.51248     16.05027         0.000000     -0.000000      0.197469
      9.51248      9.51248     13.49036         0.000000      0.000000     -0.197469
 -----------------------------------------------------------------------------------
    total drift:                                0.000028     -0.000231     -0.000035


--------------------------------------------------------------------------------------------------------



  FREE ENERGIE OF THE ION-ELECTRON SYSTEM (eV)
  ---------------------------------------------------
  free  energy   TOTEN  =        -1.98676219 eV

  energy  without entropy=       -1.98676219  energy(sigma->0) =       -1.98676219



--------------------------------------------------------------------------------------------------------


    POTLOK:  cpu time      0.2682: real time      0.2682


--------------------------------------------------------------------------------------------------------


     LOOP+:  cpu time     25.4422: real time     25.5344
    4ORBIT:  cpu time      0.0000: real time      0.0000

 total amount of memory used by VASP MPI-rank0   125759. kBytes
=======================================================================

   base      :      30000. kBytes
   nonlr-proj:        655. kBytes
   fftplans  :      38424. kBytes
   grid      :      53473. kBytes
   one-center:         15. kBytes
   wavefun   :       3192. kBytes

  
  
 General timing and accounting informations for this job:
 ========================================================
  
                  Total CPU time used (sec):       40.477
                            User time (sec):       38.942
                          System time (sec):        1.535
                         Elapsed time (sec):       45.057
  
                   Maximum memory used (kb):      317904.
                   Average memory used (kb):          N/A
  
                          Minor page faults:        60775
                          Major page faults:            0
                 Voluntary context switches:         6524
