 vasp.6.3.0 20Jan22 (build Apr  1 2022 16:44:48) complex                         
 executed on        HPECrayEX_GCC date 2022.08.16  04:26:51
 running  512 mpi-ranks, with    1 threads/rank
 distrk:  each k-point on  256 cores,    2 groups
 distr:  one band on NCORE=   4 cores,   64 groups


--------------------------------------------------------------------------------------------------------


 INCAR:
   SYSTEM = MgO-rocksalt
   ISMEAR = 0
   SIGMA = 0.05
   EDIFF = 1E-6
   ALGO = ALL
   ISTART = 0
   IBRION = -1
   NSW = 0
   ISYM = 2
   DIPOL = 0.5 0.5 0.5
   IDIPOL = 3
   LDIPOL = .TRUE.
   METAGGA = SCAN
   LUSE_VDW = .TRUE.
   BPARAM = 15.7
   CPARAM = 0.0093
   ENCUT = 520
   PREC = Accurate
   LASPH = .TRUE.
   LREAL = Auto
   ISPIN = 1
   NELM = 200
   NELMIN = 8
   NCORE = 4
   KPAR = 2
   LWAVE = .FALSE.
   LCHARG = .FALSE.

 POTCAR:    PAW_PBE Ag 02Apr2005                  
 -----------------------------------------------------------------------------
|                                                                             |
|               ----> ADVICE to this user running VASP <----                  |
|                                                                             |
|     You have switched on vdW-DFT.                                           |
|     This routine was written and supplied by Jiri Klimes. We recommend      |
|     that you carefully read and cite the following publications:            |
|       J. Klimes, D.R. Bowler, A. Michelides                                 |
|          J. Phys.: Cond Matt. 22 022201 (2010)                              |
|       J. Klimes, D.R. Bowler, A. Michelides                                 |
|          Phys. Rev. B. 83, 195131 (2011)                                    |
|     and references therein.                                                 |
|                                                                             |
 -----------------------------------------------------------------------------

 POTCAR:    PAW_PBE Ag 02Apr2005                  
   SHA256 =  6550cfa3543261e132c169e1b98a529204624d72be14e2da2e0242bcb74a174d Ag/POTCAR             
   COPYR  = (c) Copyright 02Apr2005 Georg Kresse                                                    
   COPYR  = This file is part of the software VASP. Any use, copying, and all other rights are regul
   COPYR  = If you do not have a valid VASP license, you may not use, copy or distribute this file. 
   VRHFIN =Ag : s1 d10                                                                              
   LEXCH  = PE                                                                                      
   EATOM  =  1037.2675 eV,   76.2370 Ry                                                             
                                                                                                    
   TITEL  = PAW_PBE Ag 02Apr2005                                                                    
   LULTRA =        F    use ultrasoft PP ?                                                          
   IUNSCR =        1    unscreen: 0-lin 1-nonlin 2-no                                               
   RPACOR =    2.000    partial core radius                                                         
   POMASS =  107.868; ZVAL   =   11.000    mass and valenz                                          
   RCORE  =    2.500    outmost cutoff radius                                                       
   RWIGS  =    2.840; RWIGS  =    1.503    wigner-seitz radius (au A)                               
   ENMAX  =  249.844; ENMIN  =  187.383 eV                                                          
   ICORE  =        3    local potential                                                             
   LCOR   =        T    correct aug charges                                                         
   LPAW   =        T    paw PP                                                                      
   EAUG   =  412.496                                                                                
   DEXC   =    0.000                                                                                
   RMAX   =    2.560    core radius for proj-oper                                                   
   RAUG   =    1.300    factor for augmentation sphere                                              
   RDEP   =    2.576    radius for radial grids                                                     
   RDEPT  =    2.072    core radius for aug-charge                                                  
                                                                                                    
   Atomic configuration                                                                             
   12 entries                                                                                       
     n  l   j            E        occ.                                                              
     1  0  0.50    -25324.9161   2.0000                                                             
     2  0  0.50     -3728.5341   2.0000                                                             
     2  1  1.50     -3344.0404   6.0000                                                             
     3  0  0.50      -683.5581   2.0000                                                             
     3  1  1.50      -557.3225   6.0000                                                             
     3  2  2.50      -358.3853  10.0000                                                             
     4  0  0.50       -95.0341   2.0000                                                             
     4  1  1.50       -58.5511   6.0000                                                             
     4  2  2.50        -7.4440  10.0000                                                             
     5  0  0.50        -4.4045   1.0000                                                             
     5  1  0.50        -1.3606   0.0000                                                             
     4  3  2.50        -1.3606   0.0000                                                             
   Description                                                                                      
     l       E           TYP  RCUT    TYP  RCUT                                                     
     2     -7.4439781     23  2.400                                                                 
     2     -8.8045607     23  2.400                                                                 
     0     -4.4044681     23  2.400                                                                 
     0      1.9520038     23  2.400                                                                 
     1     -1.3605826     23  2.500                                                                 
     1     27.2116520     23  2.500                                                                 
     3     -4.0817478     23  2.400                                                                 
  local pseudopotential read in
  partial core-charges read in
  partial kinetic energy density read in
  atomic valenz-charges read in
  non local Contribution for L=           2  read in
    real space projection operators read in
  non local Contribution for L=           2  read in
    real space projection operators read in
  non local Contribution for L=           0  read in
    real space projection operators read in
  non local Contribution for L=           0  read in
    real space projection operators read in
  non local Contribution for L=           1  read in
    real space projection operators read in
  non local Contribution for L=           1  read in
    real space projection operators read in
    PAW grid and wavefunctions read in

   number of l-projection  operators is LMAX  =           6
   number of lm-projection operators is LMMAX =          18

 -----------------------------------------------------------------------------
|                                                                             |
|               ----> ADVICE to this user running VASP <----                  |
|                                                                             |
|     You have a (more or less) 'small supercell' and for smaller cells       |
|     it is recommended to use the reciprocal-space projection scheme!        |
|     The real-space optimization is not efficient for small cells and it     |
|     is also less accurate ...                                               |
|     Therefore, set LREAL=.FALSE. in the INCAR file.                         |
|                                                                             |
 -----------------------------------------------------------------------------

 Optimization of the real space projectors (new method)

 maximal supplied QI-value         = 15.12
 optimisation between [QCUT,QGAM] = [ 11.64, 23.28] = [ 37.95,151.78] Ry 
 Optimized for a Real-space Cutoff    1.45 Angstroem

   l    n(q)    QCUT    max X(q) W(low)/X(q) W(high)/X(q)  e(spline) 
   2      9    11.641    53.897    0.22E-03    0.42E-04    0.28E-06
   2      9    11.641    52.416    0.23E-03    0.44E-04    0.29E-06
   0     10    11.641   122.045    0.51E-04    0.25E-04    0.16E-06
   0     10    11.641    73.629    0.49E-04    0.24E-04    0.16E-06
   1     10    11.641    15.255    0.99E-04    0.55E-04    0.11E-06
   1     10    11.641     9.562    0.81E-04    0.47E-04    0.95E-07
  PAW_PBE Ag 02Apr2005                  :
 energy of atom  1       EATOM=-1037.2675
 kinetic energy error for atom=    0.0047 (will be added to EATOM!!)


 POSCAR: Ag
  positions in direct lattice
  No initial velocities read in

 METAGGA = SCAN     LMAXTAU =  6    LMIXTAU =  F

 exchange correlation table for  LEXCH =        8
   RHO(1)=    0.500       N(1)  =     2000
   RHO(2)=  100.500       N(2)  =     4000



--------------------------------------------------------------------------------------------------------


 ion  position               nearest neighbor table
   1  0.500  0.500  0.720-   2 2.55
   2  0.500  0.500  0.605-   1 2.55

  LATTYP: Found a simple tetragonal cell.
 ALAT       =    21.1388521970
 C/A-ratio  =     1.0461251639
  
  Lattice vectors:
  
 A1 = (  21.1388521970,   0.0000000000,   0.0000000000)
 A2 = (   0.0000000000,  21.1388521970,   0.0000000000)
 A3 = (   0.0000000000,   0.0000000000,  22.1138852197)


Analysis of symmetry for initial positions (statically):
=====================================================================
 Subroutine PRICEL returns:
 Original cell was already a primitive cell.
 

 Routine SETGRP: Setting up the symmetry group for a 
 simple tetragonal supercell.


 Subroutine GETGRP returns: Found 16 space group operations
 (whereof  8 operations were pure point group operations)
 out of a pool of 16 trial point group operations.


The static configuration has the point symmetry C_4v.
 The point group associated with its full space group is D_4h.


Analysis of symmetry for dynamics (positions and initial velocities):
=====================================================================
 Subroutine PRICEL returns:
 Original cell was already a primitive cell.
 

 Routine SETGRP: Setting up the symmetry group for a 
 simple tetragonal supercell.


 Subroutine GETGRP returns: Found 16 space group operations
 (whereof  8 operations were pure point group operations)
 out of a pool of 16 trial point group operations.


The dynamic configuration has the point symmetry C_4v.
 The point group associated with its full space group is D_4h.


 Subroutine INISYM returns: Found 16 space group operations
 (whereof  8 operations are pure point group operations),
 and found     1 'primitive' translations


----------------------------------------------------------------------------------------

                                     Primitive cell                                     

  volume of cell :    9881.6133

  direct lattice vectors                    reciprocal lattice vectors
    21.138852197  0.000000000  0.000000000     0.047306258  0.000000000  0.000000000
     0.000000000 21.138852197  0.000000000     0.000000000  0.047306258  0.000000000
     0.000000000  0.000000000 22.113885220     0.000000000  0.000000000  0.045220457

  length of vectors
    21.138852197 21.138852197 22.113885220     0.047306258  0.047306258  0.045220457

  position of ions in fractional coordinates (direct lattice)
     0.500000000  0.500000000  0.720254265
     0.500000000  0.500000000  0.605068473

  ion indices of the primitive-cell ions
   primitive index   ion index
                 1           1
                 2           2

----------------------------------------------------------------------------------------



 KPOINTS: KPOINTS created by Atomic Simulation Env

Automatic generation of k-mesh.
 Grid dimensions read from file:
 generate k-points for:    1    1    1

 Generating k-lattice:

  Cartesian coordinates                     Fractional coordinates (reciprocal lattice)
     0.047306258  0.000000000  0.000000000     1.000000000  0.000000000  0.000000000
     0.000000000  0.047306258  0.000000000     0.000000000  1.000000000  0.000000000
     0.000000000  0.000000000  0.045220457     0.000000000  0.000000000  1.000000000

  Length of vectors
     0.047306258  0.047306258  0.045220457

  Shift w.r.t. Gamma in fractional coordinates (k-lattice)
     0.000000000  0.000000000  0.000000000

 
 Subroutine IBZKPT returns following result:
 ===========================================
 
 Found      1 irreducible k-points:
 
 Following reciprocal coordinates:
            Coordinates               Weight
  0.000000  0.000000  0.000000      1.000000
 
 Following cartesian coordinates:
            Coordinates               Weight
  0.000000  0.000000  0.000000      1.000000
 


--------------------------------------------------------------------------------------------------------




 Dimension of arrays:
   k-points           NKPTS =      1   k-points in BZ     NKDIM =      1   number of bands    NBANDS=     64
   number of dos      NEDOS =    301   number of ions     NIONS =      2
   non local maximal  LDIM  =      6   non local SUM 2l+1 LMDIM =     18
   total plane-waves  NPLWV = ******
   max r-space proj   IRMAX =   5559   max aug-charges    IRDMAX=  21597
   dimension x,y,z NGX =   160 NGY =  160 NGZ =  168
   dimension x,y,z NGXF=   320 NGYF=  320 NGZF=  336
   support grid    NGXF=   320 NGYF=  320 NGZF=  336
   ions per type =               2
   NGX,Y,Z   is equivalent  to a cutoff of  12.58, 12.58, 12.63 a.u.
   NGXF,Y,Z  is equivalent  to a cutoff of  25.17, 25.17, 25.26 a.u.

 SYSTEM =  MgO-rocksalt                            
 POSCAR =  Ag                                      

 Startparameter for this run:
   NWRITE =      2    write-flag & timer
   PREC   = accura    normal or accurate (medium, high low for compatibility)
   ISTART =      0    job   : 0-new  1-cont  2-samecut
   ICHARG =      2    charge: 1-file 2-atom 10-const
   ISPIN  =      1    spin polarized calculation?
   LNONCOLLINEAR =      F non collinear calculations
   LSORBIT =      F    spin-orbit coupling
   INIWAV =      1    electr: 0-lowe 1-rand  2-diag
   LASPH  =      T    aspherical Exc in radial PAW
 Electronic Relaxation 1
   ENCUT  =  520.0 eV  38.22 Ry    6.18 a.u.  39.30 39.30 41.12*2*pi/ulx,y,z
   ENINI  =  520.0     initial cutoff
   ENAUG  =  412.5 eV  augmentation charge cutoff
   NELM   =    200;   NELMIN=  8; NELMDL= -5     # of ELM steps 
   EDIFF  = 0.1E-05   stopping-criterion for ELM
   LREAL  =      T    real-space projection
   NLSPLINE    = F    spline interpolate recip. space projectors
   LCOMPAT=      F    compatible to vasp.4.4
   GGA_COMPAT  = T    GGA compatible to vasp.4.4-vasp.4.6
   LMAXPAW     = -100 max onsite density
   LMAXMIX     =    2 max onsite mixed and CHGCAR
   VOSKOWN=      0    Vosko Wilk Nusair interpolation
   ROPT   =   -0.00025
 Ionic relaxation
   EDIFFG = 0.1E-04   stopping-criterion for IOM
   NSW    =      0    number of steps for IOM
   NBLOCK =      1;   KBLOCK =      1    inner block; outer block 
   IBRION =     -1    ionic relax: 0-MD 1-quasi-New 2-CG
   NFREE  =      0    steps in history (QN), initial steepest desc. (CG)
   ISIF   =      2    stress and relaxation
   IWAVPR =     10    prediction:  0-non 1-charg 2-wave 3-comb
   ISYM   =      2    0-nonsym 1-usesym 2-fastsym
   LCORR  =      T    Harris-Foulkes like correction to forces

   POTIM  = 0.5000    time-step for ionic-motion
   TEIN   =    0.0    initial temperature
   TEBEG  =    0.0;   TEEND  =   0.0 temperature during run
   SMASS  =  -3.00    Nose mass-parameter (am)
   estimated Nose-frequenzy (Omega)   =  0.10E-29 period in steps = 0.13E+47 mass=  -0.102E-25a.u.
   SCALEE = 1.0000    scale energy and forces
   NPACO  =    256;   APACO  = 10.0  distance and # of slots for P.C.
   PSTRESS=    0.0 pullay stress

  Mass of Ions in am
   POMASS = 107.87
  Ionic Valenz
   ZVAL   =  11.00
  Atomic Wigner-Seitz radii
   RWIGS  =  -1.00
  virtual crystal weights 
   VCA    =   1.00
   NELECT =      22.0000    total number of electrons
   NUPDOWN=      -1.0000    fix difference up-down

 DOS related values:
   EMIN   =  10.00;   EMAX   =-10.00  energy-range for DOS
   EFERMI =   0.00
   ISMEAR =     0;   SIGMA  =   0.05  broadening in eV -4-tet -1-fermi 0-gaus

 Electronic relaxation 2 (details)
   IALGO  =     58    algorithm
   LDIAG  =      T    sub-space diagonalisation (order eigenvalues)
   LSUBROT=      F    optimize rotation matrix (better conditioning)
   TURBO    =      0    0=normal 1=particle mesh
   IRESTART =      0    0=no restart 2=restart with 2 vectors
   NREBOOT  =      0    no. of reboots
   NMIN     =      0    reboot dimension
   EREF     =   0.00    reference energy to select bands
   IMIX   =      4    mixing-type and parameters
     AMIX     =   0.40;   BMIX     =  1.00
     AMIX_MAG =   1.60;   BMIX_MAG =  1.00
     AMIN     =   0.10
     WC   =   100.;   INIMIX=   1;  MIXPRE=   1;  MAXMIX= -45

 Intra band minimization:
   WEIMIN = 0.0000     energy-eigenvalue tresh-hold
   EBREAK =  0.39E-08  absolut break condition
   DEPER  =   0.30     relativ break condition  

   TIME   =   0.40     timestep for ELM

  volume/ion in A,a.u.               =    4940.81     33342.21
  Fermi-wavevector in a.u.,A,eV,Ry     =   0.213767  0.403960  0.621734  0.045696
  Thomas-Fermi vector in A             =   0.985879

 Write flags
   LWAVE        =      F    write WAVECAR
   LDOWNSAMPLE  =      F    k-point downsampling of WAVECAR
   LCHARG       =      F    write CHGCAR
   LVTOT        =      F    write LOCPOT, total local potential
   LVHAR        =      F    write LOCPOT, Hartree potential only
   LELF         =      F    write electronic localiz. function (ELF)
   LORBIT       =      0    0 simple, 1 ext, 2 COOP (PROOUT), +10 PAW based schemes


 Dipole corrections
   LMONO  =      F    monopole corrections only (constant potential shift)
   LDIPOL =      T    correct potential (dipole corrections)
   IDIPOL =      3    1-x, 2-y, 3-z, 4-all directions 
   EPSILON=  1.0000000 bulk dielectric constant

 Exchange correlation treatment:
   GGA     =    --    GGA type
   LEXCH   =     8    internal setting for exchange type
   LIBXC   =     F    Libxc                    
   VOSKOWN =     0    Vosko Wilk Nusair interpolation
   LHFCALC =     F    Hartree Fock is set to
   LHFONE  =     F    Hartree Fock one center treatment
   AEXX    =    0.0000 exact exchange contribution

 vdW DFT:
   LUSE_VDW   =     T    switch on vdW DFT
   Zab_VDW    =-.8491    correlation parameter
   PARAM1     =0.1234
   PARAM2     =1.0000
   PARAM3     =0.0000
   -- rVV10 --
   BPARAM     =15.7000
   CPARAM     = 0.0093

 Linear response parameters
   LEPSILON=     F    determine dielectric tensor
   LRPA    =     F    only Hartree local field effects (RPA)
   LNABLA  =     F    use nabla operator in PAW spheres
   LVEL    =     F    velocity operator in full k-point grid
   CSHIFT  =0.1000    complex shift for real part using Kramers Kronig
   OMEGAMAX=  -1.0    maximum frequency
   DEG_THRESHOLD= 0.2000000E-02 threshold for treating states as degnerate
   RTIME   =   -0.100 relaxation time in fs
  (WPLASMAI=    0.000 imaginary part of plasma frequency in eV, 0.658/RTIME)
   DFIELD  = 0.0000000 0.0000000 0.0000000 field for delta impulse in time

  Optional k-point grid parameters
   LKPOINTS_OPT  =     F    use optional k-point grid
   KPOINTS_OPT_MODE=     1    mode for optional k-point grid

 Orbital magnetization related:
   ORBITALMAG=     F  switch on orbital magnetization
   LCHIMAG   =     F  perturbation theory with respect to B field
   DQ        =  0.001000  dq finite difference perturbation B field
   LLRAUG    =     F  two centre corrections for induced B field



--------------------------------------------------------------------------------------------------------


 Static calculation
 charge density and potential will be updated during run
 non-spin polarized calculation
 Conjugate gradient for all bands (Freysoldt, et al. PRB 79, 241103 (2009))
 preconditioned conjugated gradient                                        
 perform sub-space diagonalisation
    before iterative eigenvector-optimisation
 modified Broyden-mixing scheme, WC =      100.0
 initial mixing is a Kerker type mixing with AMIX =  0.4000 and BMIX =      1.0000
 Hartree-type preconditioning will be used
 using additional bands           53
 real space projection scheme for non local part
 use partial core corrections
 no Harris-corrections to forces 
 use gradient corrections 
 use of overlap-Matrix (Vanderbilt PP)
 Gauss-broadening in eV      SIGMA  =   0.05


--------------------------------------------------------------------------------------------------------


  energy-cutoff  :      520.00
  volume of cell :     9881.61
      direct lattice vectors                 reciprocal lattice vectors
    21.138852197  0.000000000  0.000000000     0.047306258  0.000000000  0.000000000
     0.000000000 21.138852197  0.000000000     0.000000000  0.047306258  0.000000000
     0.000000000  0.000000000 22.113885220     0.000000000  0.000000000  0.045220457

  length of vectors
    21.138852197 21.138852197 22.113885220     0.047306258  0.047306258  0.045220457



 k-points in units of 2pi/SCALE and weight: KPOINTS created by Atomic Simulation Env
   0.00000000  0.00000000  0.00000000       1.000

 k-points in reciprocal lattice and weights: KPOINTS created by Atomic Simulation Env
   0.00000000  0.00000000  0.00000000       1.000

 position of ions in fractional coordinates (direct lattice) 
   0.50000000  0.50000000  0.72025427
   0.50000000  0.50000000  0.60506847

 position of ions in cartesian coordinates  (Angst):
  10.56942610 10.56942610 15.92762015
  10.56942610 10.56942610 13.38041476



--------------------------------------------------------------------------------------------------------


 k-point   1 :   0.0000 0.0000 0.0000  plane waves:  265979

 maximum and minimum number of plane-waves per node :     66495    66494

 maximum number of plane-waves:    265979
 maximum index in each direction: 
   IXMAX=   39   IYMAX=   39   IZMAX=   41
   IXMIN=  -39   IYMIN=  -39   IZMIN=  -41


 real space projection operators:
  total allocation   :       1507.36 KBytes
  max/ min on nodes  :        380.67        374.77


 parallel 3D FFT for wavefunctions:
    minimum data exchange during FFTs selected (reduces bandwidth)
 parallel 3D FFT for charge:
    minimum data exchange during FFTs selected (reduces bandwidth)


 total amount of memory used by VASP MPI-rank0   161896. kBytes
=======================================================================

   base      :      30000. kBytes
   nonlr-proj:        656. kBytes
   fftplans  :      38424. kBytes
   grid      :      89609. kBytes
   one-center:         15. kBytes
   wavefun   :       3192. kBytes

     INWAV:  cpu time      0.0001: real time      0.0003
 Broyden mixing: mesh for mixing (old mesh)
   NGX = 79   NGY = 79   NGZ = 83
  (NGX  =320   NGY  =320   NGZ  =336)
  gives a total of 518003 points

 initial charge density was supplied:
 charge density of overlapping atoms calculated
 number of electron      22.0000000 magnetization 
 keeping initial charge density in first step


--------------------------------------------------------------------------------------------------------


 Maximum index for non-local projection operator         1377
 Maximum index for augmentation-charges            0 (set IRDMAX)


--------------------------------------------------------------------------------------------------------


 First call to EWALD:  gamma=   0.083
 Maximum number of real-space cells 3x 3x 3
 Maximum number of reciprocal cells 3x 3x 3

    FEWALD:  cpu time      0.0013: real time      0.0013


--------------------------------------- Iteration      1(   1)  ---------------------------------------


    POTLOK:  cpu time      2.1405: real time      2.1410
    SETDIJ:  cpu time      0.4192: real time      0.4193
    TRIAL :  cpu time      1.3528: real time      1.3536
    CORREC:  cpu time      0.0010: real time      0.0010
    --------------------------------------------
      LOOP:  cpu time      3.9158: real time      3.9173

 eigenvalue-minimisations  :   128
 total energy-change (2. order) : 0.1011046E+03  (-0.3782610E+03)
 number of electron      22.0000000 magnetization 
 augmentation part       22.0000000 magnetization 

 DIPCOR: dipole corrections for dipol
 direction  3 min pos     1,
 dipolmoment           0.000000      0.000000     -0.000072 electrons x Angstroem
 Tr[quadrupol]     -4913.663375

 energy correction for charged system         0.000000 eV
 dipol+quadrupol energy correction           -0.000000 eV
 added-field ion interaction          0.000113 eV  (added to PSCEN)


 Free energy of the ion-electron system (eV)
  ---------------------------------------------------
  alpha Z        PSCENC =         0.34442058
  Ewald energy   TEWEN  =       225.72110649
  -Hartree energ DENC   =     -2207.56135700
  -exchange      EXHF   =         0.00000000
  -V(xc)+E(xc)   XCENC  =        -1.81143260
  PAW double counting   =      1976.59824692    -1960.72539893
  entropy T*S    EENTRO =        -0.01586842
  eigenvalues    EBANDS =        -5.97066177
  atomic energy  EATOM  =      2074.52556292
  ---------------------------------------------------
  free energy    TOTEN  =       101.10461818 eV

  energy without entropy =      101.12048660  energy(sigma->0) =      101.11255239


--------------------------------------------------------------------------------------------------------




--------------------------------------- Iteration      1(   2)  ---------------------------------------


    TRIAL :  cpu time      2.2534: real time      2.2547
    CORREC:  cpu time      0.0002: real time      0.0002
    --------------------------------------------
      LOOP:  cpu time      2.2583: real time      2.2682

 eigenvalue-minimisations  :   256
 total energy-change (2. order) :-0.1580391E+03  (-0.1577629E+03)
 number of electron      22.0000000 magnetization 
 augmentation part       22.0000000 magnetization 

 DIPCOR: dipole corrections for dipol
 direction  3 min pos     1,
 dipolmoment           0.000000      0.000000     -0.000072 electrons x Angstroem
 Tr[quadrupol]     -4913.663375

 energy correction for charged system         0.000000 eV
 dipol+quadrupol energy correction           -0.000000 eV
 added-field ion interaction          0.000113 eV  (added to PSCEN)


 Free energy of the ion-electron system (eV)
  ---------------------------------------------------
  alpha Z        PSCENC =         0.34442058
  Ewald energy   TEWEN  =       225.72110649
  -Hartree energ DENC   =     -2207.56135700
  -exchange      EXHF   =         0.00000000
  -V(xc)+E(xc)   XCENC  =        -1.81143260
  PAW double counting   =      1976.59824692    -1960.72539893
  entropy T*S    EENTRO =        -0.00000000
  eigenvalues    EBANDS =      -164.02559271
  atomic energy  EATOM  =      2074.52556292
  ---------------------------------------------------
  free energy    TOTEN  =       -56.93444434 eV

  energy without entropy =      -56.93444434  energy(sigma->0) =      -56.93444434


--------------------------------------------------------------------------------------------------------




--------------------------------------- Iteration      1(   3)  ---------------------------------------


    TRIAL :  cpu time      1.3139: real time      1.3140
    CORREC:  cpu time      0.0002: real time      0.0002
    --------------------------------------------
      LOOP:  cpu time      1.3188: real time      1.3267

 eigenvalue-minimisations  :   128
 total energy-change (2. order) :-0.8295406E+01  (-0.8295406E+01)
 number of electron      22.0000000 magnetization 
 augmentation part       22.0000000 magnetization 

 DIPCOR: dipole corrections for dipol
 direction  3 min pos     1,
 dipolmoment           0.000000      0.000000     -0.000072 electrons x Angstroem
 Tr[quadrupol]     -4913.663375

 energy correction for charged system         0.000000 eV
 dipol+quadrupol energy correction           -0.000000 eV
 added-field ion interaction          0.000113 eV  (added to PSCEN)


 Free energy of the ion-electron system (eV)
  ---------------------------------------------------
  alpha Z        PSCENC =         0.34442058
  Ewald energy   TEWEN  =       225.72110649
  -Hartree energ DENC   =     -2207.56135700
  -exchange      EXHF   =         0.00000000
  -V(xc)+E(xc)   XCENC  =        -1.81143260
  PAW double counting   =      1976.59824692    -1960.72539893
  entropy T*S    EENTRO =        -0.00000000
  eigenvalues    EBANDS =      -172.32099888
  atomic energy  EATOM  =      2074.52556292
  ---------------------------------------------------
  free energy    TOTEN  =       -65.22985051 eV

  energy without entropy =      -65.22985051  energy(sigma->0) =      -65.22985051


--------------------------------------------------------------------------------------------------------




--------------------------------------- Iteration      1(   4)  ---------------------------------------


    TRIAL :  cpu time      1.3152: real time      1.3153
    CORREC:  cpu time      0.0003: real time      0.0003
    --------------------------------------------
      LOOP:  cpu time      1.3283: real time      1.3287

 eigenvalue-minimisations  :   128
 total energy-change (2. order) :-0.4123956E-01  (-0.4123956E-01)
 number of electron      22.0000000 magnetization 
 augmentation part       22.0000000 magnetization 

 DIPCOR: dipole corrections for dipol
 direction  3 min pos     1,
 dipolmoment           0.000000      0.000000     -0.000072 electrons x Angstroem
 Tr[quadrupol]     -4913.663375

 energy correction for charged system         0.000000 eV
 dipol+quadrupol energy correction           -0.000000 eV
 added-field ion interaction          0.000113 eV  (added to PSCEN)


 Free energy of the ion-electron system (eV)
  ---------------------------------------------------
  alpha Z        PSCENC =         0.34442058
  Ewald energy   TEWEN  =       225.72110649
  -Hartree energ DENC   =     -2207.56135700
  -exchange      EXHF   =         0.00000000
  -V(xc)+E(xc)   XCENC  =        -1.81143260
  PAW double counting   =      1976.59824692    -1960.72539893
  entropy T*S    EENTRO =        -0.00000000
  eigenvalues    EBANDS =      -172.36223844
  atomic energy  EATOM  =      2074.52556292
  ---------------------------------------------------
  free energy    TOTEN  =       -65.27109007 eV

  energy without entropy =      -65.27109007  energy(sigma->0) =      -65.27109007


--------------------------------------------------------------------------------------------------------




--------------------------------------- Iteration      1(   5)  ---------------------------------------


    TRIAL :  cpu time      2.2362: real time      2.2363
    CORREC:  cpu time      0.0003: real time      0.0003
    CHARGE:  cpu time      4.4069: real time      4.4086
    --------------------------------------------
      LOOP:  cpu time      6.6468: real time      6.6575

 eigenvalue-minimisations  :   256
 total energy-change (2. order) :-0.7654331E-03  (-0.7654331E-03)
 number of electron      22.0000006 magnetization 
 augmentation part       10.3013766 magnetization 

 DIPCOR: dipole corrections for dipol
 direction  3 min pos     1,
 dipolmoment           0.000000      0.000000     -0.000072 electrons x Angstroem
 Tr[quadrupol]     -4913.663375

 energy correction for charged system         0.000000 eV
 dipol+quadrupol energy correction           -0.000000 eV
 added-field ion interaction          0.000113 eV  (added to PSCEN)


 Free energy of the ion-electron system (eV)
  ---------------------------------------------------
  alpha Z        PSCENC =         0.34442058
  Ewald energy   TEWEN  =       225.72110649
  -Hartree energ DENC   =     -2207.56135700
  -exchange      EXHF   =         0.00000000
  -V(xc)+E(xc)   XCENC  =        -1.81143260
  PAW double counting   =      1976.59824692    -1960.72539893
  entropy T*S    EENTRO =        -0.00000000
  eigenvalues    EBANDS =      -172.36300388
  atomic energy  EATOM  =      2074.52556292
  ---------------------------------------------------
  free energy    TOTEN  =       -65.27185551 eV

  energy without entropy =      -65.27185551  energy(sigma->0) =      -65.27185551


--------------------------------------------------------------------------------------------------------




--------------------------------------- Iteration      1(   6)  ---------------------------------------


    POTLOK:  cpu time      2.0031: real time      2.0032
    SETDIJ:  cpu time      0.4135: real time      0.4136
    TRIAL :  cpu time      1.1879: real time      1.1886
    CORREC:  cpu time      7.3004: real time      7.3020
    CHARGE:  cpu time      4.3991: real time      4.3995
    --------------------------------------------
      LOOP:  cpu time     15.4856: real time     15.4889

 eigenvalue-minimisations  :     0
 total energy-change (2. order) : 0.8814374E+01  (-0.1161036E+01)
 number of electron      22.0000006 magnetization 
 augmentation part       10.6869841 magnetization 

 DIPCOR: dipole corrections for dipol
 direction  3 min pos     1,
 dipolmoment           0.000000      0.000000     -0.001340 electrons x Angstroem
 Tr[quadrupol]     -4916.116374

 energy correction for charged system         0.000000 eV
 dipol+quadrupol energy correction           -0.000000 eV
 added-field ion interaction          0.002098 eV  (added to PSCEN)


 Free energy of the ion-electron system (eV)
  ---------------------------------------------------
  alpha Z        PSCENC =         0.34431023
  Ewald energy   TEWEN  =       225.72110649
  -Hartree energ DENC   =     -2186.91203907
  -exchange      EXHF   =         0.00000000
  -V(xc)+E(xc)   XCENC  =         6.69131844
  PAW double counting   =      2305.13039067    -2290.74157593
  entropy T*S    EENTRO =        -0.00000000
  eigenvalues    EBANDS =      -191.21655569
  atomic energy  EATOM  =      2074.52556292
  ---------------------------------------------------
  free energy    TOTEN  =       -56.45748196 eV

  energy without entropy =      -56.45748196  energy(sigma->0) =      -56.45748196


--------------------------------------------------------------------------------------------------------




--------------------------------------- Iteration      1(   7)  ---------------------------------------


    POTLOK:  cpu time      1.9990: real time      1.9992
    SETDIJ:  cpu time      0.4131: real time      0.4132
    TRIAL :  cpu time      1.1833: real time      1.1843
    CORREC:  cpu time      7.2908: real time      7.2912
    CHARGE:  cpu time      4.3992: real time      4.3999
    --------------------------------------------
      LOOP:  cpu time     15.4480: real time     15.4589

 eigenvalue-minimisations  :     0
 total energy-change (2. order) :-0.1155216E+01  (-0.1433380E+00)
 number of electron      22.0000006 magnetization 
 augmentation part       10.6787068 magnetization 

 DIPCOR: dipole corrections for dipol
 direction  3 min pos     1,
 dipolmoment           0.000000      0.000000     -0.000769 electrons x Angstroem
 Tr[quadrupol]     -4915.825019

 energy correction for charged system         0.000000 eV
 dipol+quadrupol energy correction           -0.000000 eV
 added-field ion interaction          0.001204 eV  (added to PSCEN)


 Free energy of the ion-electron system (eV)
  ---------------------------------------------------
  alpha Z        PSCENC =         0.34567831
  Ewald energy   TEWEN  =       225.72110649
  -Hartree energ DENC   =     -2231.29181348
  -exchange      EXHF   =         0.00000000
  -V(xc)+E(xc)   XCENC  =         7.27766718
  PAW double counting   =      2274.20926339    -2260.03997656
  entropy T*S    EENTRO =        -0.00000000
  eigenvalues    EBANDS =      -148.36018651
  atomic energy  EATOM  =      2074.52556292
  ---------------------------------------------------
  free energy    TOTEN  =       -57.61269828 eV

  energy without entropy =      -57.61269828  energy(sigma->0) =      -57.61269828


--------------------------------------------------------------------------------------------------------




--------------------------------------- Iteration      1(   8)  ---------------------------------------


    POTLOK:  cpu time      1.9990: real time      1.9991
    SETDIJ:  cpu time      0.4095: real time      0.4095
    TRIAL :  cpu time      1.1859: real time      1.1860
    CORREC:  cpu time      7.2976: real time      7.2983
    CHARGE:  cpu time      4.3939: real time      4.3941
    --------------------------------------------
      LOOP:  cpu time     15.4656: real time     15.4672

 eigenvalue-minimisations  :     0
 total energy-change (2. order) :-0.1418606E+00  (-0.3043783E-01)
 number of electron      22.0000006 magnetization 
 augmentation part       10.7083656 magnetization 

 DIPCOR: dipole corrections for dipol
 direction  3 min pos     1,
 dipolmoment           0.000000      0.000000     -0.000398 electrons x Angstroem
 Tr[quadrupol]     -4915.674703

 energy correction for charged system         0.000000 eV
 dipol+quadrupol energy correction           -0.000000 eV
 added-field ion interaction          0.000623 eV  (added to PSCEN)


 Free energy of the ion-electron system (eV)
  ---------------------------------------------------
  alpha Z        PSCENC =         0.34551999
  Ewald energy   TEWEN  =       225.72110649
  -Hartree energ DENC   =     -2218.78115655
  -exchange      EXHF   =         0.00000000
  -V(xc)+E(xc)   XCENC  =         6.83875320
  PAW double counting   =      2235.52350278    -2221.41247888
  entropy T*S    EENTRO =        -0.00000000
  eigenvalues    EBANDS =      -160.51536881
  atomic energy  EATOM  =      2074.52556292
  ---------------------------------------------------
  free energy    TOTEN  =       -57.75455886 eV

  energy without entropy =      -57.75455886  energy(sigma->0) =      -57.75455886


--------------------------------------------------------------------------------------------------------




--------------------------------------- Iteration      1(   9)  ---------------------------------------


    POTLOK:  cpu time      1.9995: real time      1.9996
    SETDIJ:  cpu time      0.4087: real time      0.4087
    TRIAL :  cpu time      1.1833: real time      1.1834
    CORREC:  cpu time      7.2938: real time      7.2942
    CHARGE:  cpu time      4.4018: real time      4.4025
    --------------------------------------------
      LOOP:  cpu time     15.4583: real time     15.4685

 eigenvalue-minimisations  :     0
 total energy-change (2. order) :-0.2523328E-01  (-0.5651145E-02)
 number of electron      22.0000006 magnetization 
 augmentation part       10.6967736 magnetization 

 DIPCOR: dipole corrections for dipol
 direction  3 min pos     1,
 dipolmoment           0.000000      0.000000     -0.000025 electrons x Angstroem
 Tr[quadrupol]     -4915.566597

 energy correction for charged system         0.000000 eV
 dipol+quadrupol energy correction           -0.000000 eV
 added-field ion interaction          0.000039 eV  (added to PSCEN)


 Free energy of the ion-electron system (eV)
  ---------------------------------------------------
  alpha Z        PSCENC =         0.34444171
  Ewald energy   TEWEN  =       225.72110649
  -Hartree energ DENC   =     -2221.57233693
  -exchange      EXHF   =         0.00000000
  -V(xc)+E(xc)   XCENC  =         6.81377891
  PAW double counting   =      2233.41653778    -2219.31107892
  entropy T*S    EENTRO =        -0.00000000
  eigenvalues    EBANDS =      -157.71780409
  atomic energy  EATOM  =      2074.52556292
  ---------------------------------------------------
  free energy    TOTEN  =       -57.77979214 eV

  energy without entropy =      -57.77979214  energy(sigma->0) =      -57.77979214


--------------------------------------------------------------------------------------------------------




--------------------------------------- Iteration      1(  10)  ---------------------------------------


    POTLOK:  cpu time      2.0048: real time      2.0049
    SETDIJ:  cpu time      0.4077: real time      0.4077
    TRIAL :  cpu time      1.1865: real time      1.1865
    CORREC:  cpu time      7.2928: real time      7.2935
    CHARGE:  cpu time      4.3991: real time      4.3993
    --------------------------------------------
      LOOP:  cpu time     15.4568: real time     15.4674

 eigenvalue-minimisations  :     0
 total energy-change (2. order) :-0.5833798E-02  (-0.2318660E-02)
 number of electron      22.0000006 magnetization 
 augmentation part       10.6956713 magnetization 

 DIPCOR: dipole corrections for dipol
 direction  3 min pos     1,
 dipolmoment           0.000000      0.000000     -0.000010 electrons x Angstroem
 Tr[quadrupol]     -4915.497422

 energy correction for charged system         0.000000 eV
 dipol+quadrupol energy correction           -0.000000 eV
 added-field ion interaction          0.000015 eV  (added to PSCEN)


 Free energy of the ion-electron system (eV)
  ---------------------------------------------------
  alpha Z        PSCENC =         0.34433938
  Ewald energy   TEWEN  =       225.72110649
  -Hartree energ DENC   =     -2219.15591803
  -exchange      EXHF   =         0.00000000
  -V(xc)+E(xc)   XCENC  =         6.75726499
  PAW double counting   =      2234.84597509    -2220.69387181
  entropy T*S    EENTRO =        -0.00000000
  eigenvalues    EBANDS =      -160.13008495
  atomic energy  EATOM  =      2074.52556292
  ---------------------------------------------------
  free energy    TOTEN  =       -57.78562593 eV

  energy without entropy =      -57.78562593  energy(sigma->0) =      -57.78562593


--------------------------------------------------------------------------------------------------------




--------------------------------------- Iteration      1(  11)  ---------------------------------------


    POTLOK:  cpu time      2.0028: real time      2.0033
    SETDIJ:  cpu time      0.4212: real time      0.4212
    TRIAL :  cpu time      1.1822: real time      1.1823
    CORREC:  cpu time      7.2843: real time      7.2849
    CHARGE:  cpu time      4.4019: real time      4.4022
    --------------------------------------------
      LOOP:  cpu time     15.4580: real time     15.4692

 eigenvalue-minimisations  :     0
 total energy-change (2. order) :-0.2293968E-02  (-0.6451552E-03)
 number of electron      22.0000006 magnetization 
 augmentation part       10.6976741 magnetization 

 DIPCOR: dipole corrections for dipol
 direction  3 min pos     1,
 dipolmoment           0.000000      0.000000     -0.000008 electrons x Angstroem
 Tr[quadrupol]     -4915.491520

 energy correction for charged system         0.000000 eV
 dipol+quadrupol energy correction           -0.000000 eV
 added-field ion interaction          0.000013 eV  (added to PSCEN)


 Free energy of the ion-electron system (eV)
  ---------------------------------------------------
  alpha Z        PSCENC =         0.34432300
  Ewald energy   TEWEN  =       225.72110649
  -Hartree energ DENC   =     -2218.95540033
  -exchange      EXHF   =         0.00000000
  -V(xc)+E(xc)   XCENC  =         6.76120885
  PAW double counting   =      2238.93614088    -2224.75378092
  entropy T*S    EENTRO =        -0.00000000
  eigenvalues    EBANDS =      -160.36708078
  atomic energy  EATOM  =      2074.52556292
  ---------------------------------------------------
  free energy    TOTEN  =       -57.78791990 eV

  energy without entropy =      -57.78791990  energy(sigma->0) =      -57.78791990


--------------------------------------------------------------------------------------------------------




--------------------------------------- Iteration      1(  12)  ---------------------------------------


    POTLOK:  cpu time      2.0023: real time      2.0024
    SETDIJ:  cpu time      0.4134: real time      0.4134
    TRIAL :  cpu time      1.1866: real time      1.1867
    CORREC:  cpu time      7.2908: real time      7.2916
    CHARGE:  cpu time      4.3958: real time      4.3960
    --------------------------------------------
      LOOP:  cpu time     15.4601: real time     15.4704

 eigenvalue-minimisations  :     0
 total energy-change (2. order) :-0.6093495E-03  (-0.1420718E-03)
 number of electron      22.0000006 magnetization 
 augmentation part       10.6975742 magnetization 

 DIPCOR: dipole corrections for dipol
 direction  3 min pos     1,
 dipolmoment           0.000000      0.000000     -0.000008 electrons x Angstroem
 Tr[quadrupol]     -4915.495401

 energy correction for charged system         0.000000 eV
 dipol+quadrupol energy correction           -0.000000 eV
 added-field ion interaction          0.000012 eV  (added to PSCEN)


 Free energy of the ion-electron system (eV)
  ---------------------------------------------------
  alpha Z        PSCENC =         0.34432002
  Ewald energy   TEWEN  =       225.72110649
  -Hartree energ DENC   =     -2219.44747006
  -exchange      EXHF   =         0.00000000
  -V(xc)+E(xc)   XCENC  =         6.77778557
  PAW double counting   =      2242.80262615    -2228.60609100
  entropy T*S    EENTRO =        -0.00000000
  eigenvalues    EBANDS =      -159.90636934
  atomic energy  EATOM  =      2074.52556292
  ---------------------------------------------------
  free energy    TOTEN  =       -57.78852925 eV

  energy without entropy =      -57.78852925  energy(sigma->0) =      -57.78852925


--------------------------------------------------------------------------------------------------------




--------------------------------------- Iteration      1(  13)  ---------------------------------------


    POTLOK:  cpu time      2.0001: real time      2.0006
    SETDIJ:  cpu time      0.4140: real time      0.4140
    TRIAL :  cpu time      1.1848: real time      1.1849
    CORREC:  cpu time      7.2879: real time      7.2882
    CHARGE:  cpu time      4.3984: real time      4.3991
    --------------------------------------------
      LOOP:  cpu time     15.4467: real time     15.4577

 eigenvalue-minimisations  :     0
 total energy-change (2. order) :-0.5027348E-04  (-0.3789403E-04)
 number of electron      22.0000006 magnetization 
 augmentation part       10.6971599 magnetization 

 DIPCOR: dipole corrections for dipol
 direction  3 min pos     1,
 dipolmoment           0.000000      0.000000     -0.000007 electrons x Angstroem
 Tr[quadrupol]     -4915.496323

 energy correction for charged system         0.000000 eV
 dipol+quadrupol energy correction           -0.000000 eV
 added-field ion interaction          0.000011 eV  (added to PSCEN)


 Free energy of the ion-electron system (eV)
  ---------------------------------------------------
  alpha Z        PSCENC =         0.34431937
  Ewald energy   TEWEN  =       225.72110649
  -Hartree energ DENC   =     -2219.51852391
  -exchange      EXHF   =         0.00000000
  -V(xc)+E(xc)   XCENC  =         6.78143012
  PAW double counting   =      2244.58904661    -2230.38708142
  entropy T*S    EENTRO =        -0.00000000
  eigenvalues    EBANDS =      -159.84443969
  atomic energy  EATOM  =      2074.52556292
  ---------------------------------------------------
  free energy    TOTEN  =       -57.78857952 eV

  energy without entropy =      -57.78857952  energy(sigma->0) =      -57.78857952


--------------------------------------------------------------------------------------------------------




--------------------------------------- Iteration      1(  14)  ---------------------------------------


    POTLOK:  cpu time      2.0003: real time      2.0004
    SETDIJ:  cpu time      0.4126: real time      0.4127
    TRIAL :  cpu time      1.1856: real time      1.1856
    CORREC:  cpu time      7.3027: real time      7.3035
    CHARGE:  cpu time      4.3958: real time      4.3961
    --------------------------------------------
      LOOP:  cpu time     15.4733: real time     15.4749

 eigenvalue-minimisations  :     0
 total energy-change (2. order) : 0.1227081E-04  (-0.2505500E-04)
 number of electron      22.0000006 magnetization 
 augmentation part       10.6969709 magnetization 

 DIPCOR: dipole corrections for dipol
 direction  3 min pos     1,
 dipolmoment           0.000000      0.000000     -0.000007 electrons x Angstroem
 Tr[quadrupol]     -4915.496337

 energy correction for charged system         0.000000 eV
 dipol+quadrupol energy correction           -0.000000 eV
 added-field ion interaction          0.000011 eV  (added to PSCEN)


 Free energy of the ion-electron system (eV)
  ---------------------------------------------------
  alpha Z        PSCENC =         0.34431887
  Ewald energy   TEWEN  =       225.72110649
  -Hartree energ DENC   =     -2219.46484938
  -exchange      EXHF   =         0.00000000
  -V(xc)+E(xc)   XCENC  =         6.78050955
  PAW double counting   =      2245.17245409    -2230.96895325
  entropy T*S    EENTRO =        -0.00000000
  eigenvalues    EBANDS =      -159.89871654
  atomic energy  EATOM  =      2074.52556292
  ---------------------------------------------------
  free energy    TOTEN  =       -57.78856725 eV

  energy without entropy =      -57.78856725  energy(sigma->0) =      -57.78856725


--------------------------------------------------------------------------------------------------------




--------------------------------------- Iteration      1(  15)  ---------------------------------------


    POTLOK:  cpu time      2.0015: real time      2.0021
    SETDIJ:  cpu time      0.4098: real time      0.4099
    TRIAL :  cpu time      1.1839: real time      1.1839
    CORREC:  cpu time      7.2866: real time      7.2870
    CHARGE:  cpu time      4.3992: real time      4.3999
    --------------------------------------------
      LOOP:  cpu time     15.4535: real time     15.4556

 eigenvalue-minimisations  :     0
 total energy-change (2. order) : 0.1083299E-04  (-0.1799218E-04)
 number of electron      22.0000006 magnetization 
 augmentation part       10.6968888 magnetization 

 DIPCOR: dipole corrections for dipol
 direction  3 min pos     1,
 dipolmoment           0.000000      0.000000     -0.000007 electrons x Angstroem
 Tr[quadrupol]     -4915.496227

 energy correction for charged system         0.000000 eV
 dipol+quadrupol energy correction           -0.000000 eV
 added-field ion interaction          0.000011 eV  (added to PSCEN)


 Free energy of the ion-electron system (eV)
  ---------------------------------------------------
  alpha Z        PSCENC =         0.34431852
  Ewald energy   TEWEN  =       225.72110649
  -Hartree energ DENC   =     -2219.43967441
  -exchange      EXHF   =         0.00000000
  -V(xc)+E(xc)   XCENC  =         6.78008666
  PAW double counting   =      2245.70421522    -2231.49941444
  entropy T*S    EENTRO =        -0.00000000
  eigenvalues    EBANDS =      -159.92475738
  atomic energy  EATOM  =      2074.52556292
  ---------------------------------------------------
  free energy    TOTEN  =       -57.78855642 eV

  energy without entropy =      -57.78855642  energy(sigma->0) =      -57.78855642


--------------------------------------------------------------------------------------------------------




--------------------------------------- Iteration      1(  16)  ---------------------------------------


    POTLOK:  cpu time      2.0042: real time      2.0043
    SETDIJ:  cpu time      0.4123: real time      0.4123
    TRIAL :  cpu time      1.1822: real time      1.1823
    CORREC:  cpu time      7.2931: real time      7.2934
    CHARGE:  cpu time      4.3988: real time      4.3990
    --------------------------------------------
      LOOP:  cpu time     15.4624: real time     15.4722

 eigenvalue-minimisations  :     0
 total energy-change (2. order) : 0.9805245E-05  (-0.1345409E-04)
 number of electron      22.0000006 magnetization 
 augmentation part       10.6968586 magnetization 

 DIPCOR: dipole corrections for dipol
 direction  3 min pos     1,
 dipolmoment           0.000000      0.000000     -0.000007 electrons x Angstroem
 Tr[quadrupol]     -4915.496055

 energy correction for charged system         0.000000 eV
 dipol+quadrupol energy correction           -0.000000 eV
 added-field ion interaction          0.000010 eV  (added to PSCEN)


 Free energy of the ion-electron system (eV)
  ---------------------------------------------------
  alpha Z        PSCENC =         0.34431827
  Ewald energy   TEWEN  =       225.72110649
  -Hartree energ DENC   =     -2219.42718916
  -exchange      EXHF   =         0.00000000
  -V(xc)+E(xc)   XCENC  =         6.77987292
  PAW double counting   =      2246.18209219    -2231.97617271
  entropy T*S    EENTRO =        -0.00000000
  eigenvalues    EBANDS =      -159.93813752
  atomic energy  EATOM  =      2074.52556292
  ---------------------------------------------------
  free energy    TOTEN  =       -57.78854662 eV

  energy without entropy =      -57.78854662  energy(sigma->0) =      -57.78854662


--------------------------------------------------------------------------------------------------------




--------------------------------------- Iteration      1(  17)  ---------------------------------------


    POTLOK:  cpu time      2.0024: real time      2.0029
    SETDIJ:  cpu time      0.4084: real time      0.4084
    TRIAL :  cpu time      1.1857: real time      1.1858
    CORREC:  cpu time      7.2825: real time      7.2833
    CHARGE:  cpu time      4.3942: real time      4.3944
    --------------------------------------------
      LOOP:  cpu time     15.4400: real time     15.4420

 eigenvalue-minimisations  :     0
 total energy-change (2. order) : 0.9203676E-05  (-0.1032294E-04)
 number of electron      22.0000006 magnetization 
 augmentation part       10.6968538 magnetization 

 DIPCOR: dipole corrections for dipol
 direction  3 min pos     1,
 dipolmoment           0.000000      0.000000     -0.000007 electrons x Angstroem
 Tr[quadrupol]     -4915.495856

 energy correction for charged system         0.000000 eV
 dipol+quadrupol energy correction           -0.000000 eV
 added-field ion interaction          0.000010 eV  (added to PSCEN)


 Free energy of the ion-electron system (eV)
  ---------------------------------------------------
  alpha Z        PSCENC =         0.34431807
  Ewald energy   TEWEN  =       225.72110649
  -Hartree energ DENC   =     -2219.42053101
  -exchange      EXHF   =         0.00000000
  -V(xc)+E(xc)   XCENC  =         6.77974772
  PAW double counting   =      2246.60678600    -2232.39990255
  entropy T*S    EENTRO =        -0.00000000
  eigenvalues    EBANDS =      -159.94562504
  atomic energy  EATOM  =      2074.52556292
  ---------------------------------------------------
  free energy    TOTEN  =       -57.78853741 eV

  energy without entropy =      -57.78853741  energy(sigma->0) =      -57.78853741


--------------------------------------------------------------------------------------------------------




--------------------------------------- Iteration      1(  18)  ---------------------------------------


    POTLOK:  cpu time      2.0069: real time      2.0070
    SETDIJ:  cpu time      0.4047: real time      0.4047
    TRIAL :  cpu time      1.1841: real time      1.1841
    CORREC:  cpu time      7.2900: real time      7.2908
    CHARGE:  cpu time      4.3970: real time      4.3976
    --------------------------------------------
      LOOP:  cpu time     15.4591: real time     15.4682

 eigenvalue-minimisations  :     0
 total energy-change (2. order) : 0.8760133E-05  (-0.8081253E-05)
 number of electron      22.0000006 magnetization 
 augmentation part       10.6968613 magnetization 

 DIPCOR: dipole corrections for dipol
 direction  3 min pos     1,
 dipolmoment           0.000000      0.000000     -0.000006 electrons x Angstroem
 Tr[quadrupol]     -4915.495652

 energy correction for charged system         0.000000 eV
 dipol+quadrupol energy correction           -0.000000 eV
 added-field ion interaction          0.000010 eV  (added to PSCEN)


 Free energy of the ion-electron system (eV)
  ---------------------------------------------------
  alpha Z        PSCENC =         0.34431791
  Ewald energy   TEWEN  =       225.72110649
  -Hartree energ DENC   =     -2219.41659855
  -exchange      EXHF   =         0.00000000
  -V(xc)+E(xc)   XCENC  =         6.77965995
  PAW double counting   =      2246.98239980    -2232.77468599
  entropy T*S    EENTRO =        -0.00000000
  eigenvalues    EBANDS =      -159.95029118
  atomic energy  EATOM  =      2074.52556292
  ---------------------------------------------------
  free energy    TOTEN  =       -57.78852865 eV

  energy without entropy =      -57.78852865  energy(sigma->0) =      -57.78852865


--------------------------------------------------------------------------------------------------------




--------------------------------------- Iteration      1(  19)  ---------------------------------------


    POTLOK:  cpu time      2.0023: real time      2.0024
    SETDIJ:  cpu time      0.4090: real time      0.4090
    TRIAL :  cpu time      1.1837: real time      1.1837
    CORREC:  cpu time      7.2882: real time      7.2890
    CHARGE:  cpu time      4.3952: real time      4.3956
    --------------------------------------------
      LOOP:  cpu time     15.4419: real time     15.4436

 eigenvalue-minimisations  :     0
 total energy-change (2. order) : 0.8333580E-05  (-0.6435892E-05)
 number of electron      22.0000006 magnetization 
 augmentation part       10.6968744 magnetization 

 DIPCOR: dipole corrections for dipol
 direction  3 min pos     1,
 dipolmoment           0.000000      0.000000     -0.000006 electrons x Angstroem
 Tr[quadrupol]     -4915.495452

 energy correction for charged system         0.000000 eV
 dipol+quadrupol energy correction           -0.000000 eV
 added-field ion interaction          0.000010 eV  (added to PSCEN)


 Free energy of the ion-electron system (eV)
  ---------------------------------------------------
  alpha Z        PSCENC =         0.34431778
  Ewald energy   TEWEN  =       225.72110649
  -Hartree energ DENC   =     -2219.41399191
  -exchange      EXHF   =         0.00000000
  -V(xc)+E(xc)   XCENC  =         6.77958864
  PAW double counting   =      2247.31474515    -2233.10631506
  entropy T*S    EENTRO =        -0.00000000
  eigenvalues    EBANDS =      -159.95353431
  atomic energy  EATOM  =      2074.52556292
  ---------------------------------------------------
  free energy    TOTEN  =       -57.78852032 eV

  energy without entropy =      -57.78852032  energy(sigma->0) =      -57.78852032


--------------------------------------------------------------------------------------------------------




--------------------------------------- Iteration      1(  20)  ---------------------------------------


    POTLOK:  cpu time      2.0022: real time      2.0024
    SETDIJ:  cpu time      0.4090: real time      0.4091
    TRIAL :  cpu time      1.1845: real time      1.1846
    CORREC:  cpu time      7.2958: real time      7.2966
    CHARGE:  cpu time      4.3944: real time      4.3946
    --------------------------------------------
      LOOP:  cpu time     15.4598: real time     15.4693

 eigenvalue-minimisations  :     0
 total energy-change (2. order) : 0.7886763E-05  (-0.5204650E-05)
 number of electron      22.0000006 magnetization 
 augmentation part       10.6968899 magnetization 

 DIPCOR: dipole corrections for dipol
 direction  3 min pos     1,
 dipolmoment           0.000000      0.000000     -0.000006 electrons x Angstroem
 Tr[quadrupol]     -4915.495265

 energy correction for charged system         0.000000 eV
 dipol+quadrupol energy correction           -0.000000 eV
 added-field ion interaction          0.000010 eV  (added to PSCEN)


 Free energy of the ion-electron system (eV)
  ---------------------------------------------------
  alpha Z        PSCENC =         0.34431767
  Ewald energy   TEWEN  =       225.72110649
  -Hartree energ DENC   =     -2219.41206632
  -exchange      EXHF   =         0.00000000
  -V(xc)+E(xc)   XCENC  =         6.77952527
  PAW double counting   =      2247.60980610    -2233.40075615
  entropy T*S    EENTRO =        -0.00000000
  eigenvalues    EBANDS =      -159.95600840
  atomic energy  EATOM  =      2074.52556292
  ---------------------------------------------------
  free energy    TOTEN  =       -57.78851243 eV

  energy without entropy =      -57.78851243  energy(sigma->0) =      -57.78851243


--------------------------------------------------------------------------------------------------------




--------------------------------------- Iteration      1(  21)  ---------------------------------------


    POTLOK:  cpu time      2.0046: real time      2.0047
    SETDIJ:  cpu time      0.4063: real time      0.4064
    TRIAL :  cpu time      1.1836: real time      1.1836
    CORREC:  cpu time      7.2833: real time      7.2841
    CHARGE:  cpu time      4.3985: real time      4.3988
    --------------------------------------------
      LOOP:  cpu time     15.4424: real time     15.4441

 eigenvalue-minimisations  :     0
 total energy-change (2. order) : 0.7421179E-05  (-0.4266716E-05)
 number of electron      22.0000006 magnetization 
 augmentation part       10.6969061 magnetization 

 DIPCOR: dipole corrections for dipol
 direction  3 min pos     1,
 dipolmoment           0.000000      0.000000     -0.000006 electrons x Angstroem
 Tr[quadrupol]     -4915.495091

 energy correction for charged system         0.000000 eV
 dipol+quadrupol energy correction           -0.000000 eV
 added-field ion interaction          0.000010 eV  (added to PSCEN)


 Free energy of the ion-electron system (eV)
  ---------------------------------------------------
  alpha Z        PSCENC =         0.34431758
  Ewald energy   TEWEN  =       225.72110649
  -Hartree energ DENC   =     -2219.41052178
  -exchange      EXHF   =         0.00000000
  -V(xc)+E(xc)   XCENC  =         6.77946669
  PAW double counting   =      2247.87303783    -2233.66344920
  entropy T*S    EENTRO =        -0.00000000
  eigenvalues    EBANDS =      -159.95802554
  atomic energy  EATOM  =      2074.52556292
  ---------------------------------------------------
  free energy    TOTEN  =       -57.78850501 eV

  energy without entropy =      -57.78850501  energy(sigma->0) =      -57.78850501


--------------------------------------------------------------------------------------------------------




--------------------------------------- Iteration      1(  22)  ---------------------------------------


    POTLOK:  cpu time      2.0019: real time      2.0020
    SETDIJ:  cpu time      0.4119: real time      0.4119
    TRIAL :  cpu time      1.1828: real time      1.1839
    CORREC:  cpu time      7.3068: real time      7.3072
    CHARGE:  cpu time      4.4068: real time      4.4070
    --------------------------------------------
      LOOP:  cpu time     15.4818: real time     15.4916

 eigenvalue-minimisations  :     0
 total energy-change (2. order) : 0.6952972E-05  (-0.3540729E-05)
 number of electron      22.0000006 magnetization 
 augmentation part       10.6969221 magnetization 

 DIPCOR: dipole corrections for dipol
 direction  3 min pos     1,
 dipolmoment           0.000000      0.000000     -0.000006 electrons x Angstroem
 Tr[quadrupol]     -4915.494932

 energy correction for charged system         0.000000 eV
 dipol+quadrupol energy correction           -0.000000 eV
 added-field ion interaction          0.000010 eV  (added to PSCEN)


 Free energy of the ion-electron system (eV)
  ---------------------------------------------------
  alpha Z        PSCENC =         0.34431751
  Ewald energy   TEWEN  =       225.72110649
  -Hartree energ DENC   =     -2219.40921058
  -exchange      EXHF   =         0.00000000
  -V(xc)+E(xc)   XCENC  =         6.77941165
  PAW double counting   =      2248.10911726    -2233.89905827
  entropy T*S    EENTRO =        -0.00000000
  eigenvalues    EBANDS =      -159.95974502
  atomic energy  EATOM  =      2074.52556292
  ---------------------------------------------------
  free energy    TOTEN  =       -57.78849806 eV

  energy without entropy =      -57.78849806  energy(sigma->0) =      -57.78849806


--------------------------------------------------------------------------------------------------------




--------------------------------------- Iteration      1(  23)  ---------------------------------------


    POTLOK:  cpu time      2.0036: real time      2.0037
    SETDIJ:  cpu time      0.4132: real time      0.4132
    TRIAL :  cpu time      1.1829: real time      1.1829
    CORREC:  cpu time      7.2890: real time      7.2898
    CHARGE:  cpu time      4.3980: real time      4.3983
    --------------------------------------------
      LOOP:  cpu time     15.4432: real time     15.4539

 eigenvalue-minimisations  :     0
 total energy-change (2. order) : 0.6493507E-05  (-0.2971199E-05)
 number of electron      22.0000006 magnetization 
 augmentation part       10.6969376 magnetization 

 DIPCOR: dipole corrections for dipol
 direction  3 min pos     1,
 dipolmoment           0.000000      0.000000     -0.000006 electrons x Angstroem
 Tr[quadrupol]     -4915.494787

 energy correction for charged system         0.000000 eV
 dipol+quadrupol energy correction           -0.000000 eV
 added-field ion interaction          0.000010 eV  (added to PSCEN)


 Free energy of the ion-electron system (eV)
  ---------------------------------------------------
  alpha Z        PSCENC =         0.34431744
  Ewald energy   TEWEN  =       225.72110649
  -Hartree energ DENC   =     -2219.40805715
  -exchange      EXHF   =         0.00000000
  -V(xc)+E(xc)   XCENC  =         6.77935965
  PAW double counting   =      2248.32194788    -2234.11147615
  entropy T*S    EENTRO =        -0.00000000
  eigenvalues    EBANDS =      -159.96125264
  atomic energy  EATOM  =      2074.52556292
  ---------------------------------------------------
  free energy    TOTEN  =       -57.78849156 eV

  energy without entropy =      -57.78849156  energy(sigma->0) =      -57.78849156


--------------------------------------------------------------------------------------------------------




--------------------------------------- Iteration      1(  24)  ---------------------------------------


    POTLOK:  cpu time      2.0045: real time      2.0046
    SETDIJ:  cpu time      0.4127: real time      0.4127
    TRIAL :  cpu time      1.1822: real time      1.1823
    CORREC:  cpu time      7.2902: real time      7.2905
    CHARGE:  cpu time      4.3915: real time      4.3921
    --------------------------------------------
      LOOP:  cpu time     15.4473: real time     15.4573

 eigenvalue-minimisations  :     0
 total energy-change (2. order) : 0.6053842E-05  (-0.2519313E-05)
 number of electron      22.0000006 magnetization 
 augmentation part       10.6969523 magnetization 

 DIPCOR: dipole corrections for dipol
 direction  3 min pos     1,
 dipolmoment           0.000000      0.000000     -0.000006 electrons x Angstroem
 Tr[quadrupol]     -4915.494654

 energy correction for charged system         0.000000 eV
 dipol+quadrupol energy correction           -0.000000 eV
 added-field ion interaction          0.000010 eV  (added to PSCEN)


 Free energy of the ion-electron system (eV)
  ---------------------------------------------------
  alpha Z        PSCENC =         0.34431738
  Ewald energy   TEWEN  =       225.72110649
  -Hartree energ DENC   =     -2219.40701927
  -exchange      EXHF   =         0.00000000
  -V(xc)+E(xc)   XCENC  =         6.77931040
  PAW double counting   =      2248.51476846    -2234.30393277
  entropy T*S    EENTRO =        -0.00000000
  eigenvalues    EBANDS =      -159.96259912
  atomic energy  EATOM  =      2074.52556292
  ---------------------------------------------------
  free energy    TOTEN  =       -57.78848551 eV

  energy without entropy =      -57.78848551  energy(sigma->0) =      -57.78848551


--------------------------------------------------------------------------------------------------------




--------------------------------------- Iteration      1(  25)  ---------------------------------------


    POTLOK:  cpu time      2.0031: real time      2.0032
    SETDIJ:  cpu time      0.4152: real time      0.4152
    TRIAL :  cpu time      1.1838: real time      1.1838
    CORREC:  cpu time      7.2810: real time      7.2819
    CHARGE:  cpu time      4.3940: real time      4.3942
    --------------------------------------------
      LOOP:  cpu time     15.4375: real time     15.4470

 eigenvalue-minimisations  :     0
 total energy-change (2. order) : 0.5635714E-05  (-0.2154176E-05)
 number of electron      22.0000006 magnetization 
 augmentation part       10.6969662 magnetization 

 DIPCOR: dipole corrections for dipol
 direction  3 min pos     1,
 dipolmoment           0.000000      0.000000     -0.000006 electrons x Angstroem
 Tr[quadrupol]     -4915.494534

 energy correction for charged system         0.000000 eV
 dipol+quadrupol energy correction           -0.000000 eV
 added-field ion interaction          0.000010 eV  (added to PSCEN)


 Free energy of the ion-electron system (eV)
  ---------------------------------------------------
  alpha Z        PSCENC =         0.34431733
  Ewald energy   TEWEN  =       225.72110649
  -Hartree energ DENC   =     -2219.40607009
  -exchange      EXHF   =         0.00000000
  -V(xc)+E(xc)   XCENC  =         6.77926402
  PAW double counting   =      2248.69027970    -2234.47912150
  entropy T*S    EENTRO =        -0.00000000
  eigenvalues    EBANDS =      -159.96381873
  atomic energy  EATOM  =      2074.52556292
  ---------------------------------------------------
  free energy    TOTEN  =       -57.78847987 eV

  energy without entropy =      -57.78847987  energy(sigma->0) =      -57.78847987


--------------------------------------------------------------------------------------------------------




--------------------------------------- Iteration      1(  26)  ---------------------------------------


    POTLOK:  cpu time      2.0037: real time      2.0038
    SETDIJ:  cpu time      0.4102: real time      0.4102
    TRIAL :  cpu time      1.1833: real time      1.1833
    CORREC:  cpu time      7.3024: real time      7.3028
    CHARGE:  cpu time      4.3996: real time      4.3998
    --------------------------------------------
      LOOP:  cpu time     15.4798: real time     15.4809

 eigenvalue-minimisations  :     0
 total energy-change (2. order) : 0.5246364E-05  (-0.1857804E-05)
 number of electron      22.0000006 magnetization 
 augmentation part       10.6969791 magnetization 

 DIPCOR: dipole corrections for dipol
 direction  3 min pos     1,
 dipolmoment           0.000000      0.000000     -0.000006 electrons x Angstroem
 Tr[quadrupol]     -4915.494424

 energy correction for charged system         0.000000 eV
 dipol+quadrupol energy correction           -0.000000 eV
 added-field ion interaction          0.000010 eV  (added to PSCEN)


 Free energy of the ion-electron system (eV)
  ---------------------------------------------------
  alpha Z        PSCENC =         0.34431728
  Ewald energy   TEWEN  =       225.72110649
  -Hartree energ DENC   =     -2219.40520128
  -exchange      EXHF   =         0.00000000
  -V(xc)+E(xc)   XCENC  =         6.77922033
  PAW double counting   =      2248.85067407    -2234.63922886
  entropy T*S    EENTRO =        -0.00000000
  eigenvalues    EBANDS =      -159.96492556
  atomic energy  EATOM  =      2074.52556292
  ---------------------------------------------------
  free energy    TOTEN  =       -57.78847463 eV

  energy without entropy =      -57.78847463  energy(sigma->0) =      -57.78847463


--------------------------------------------------------------------------------------------------------




--------------------------------------- Iteration      1(  27)  ---------------------------------------


    POTLOK:  cpu time      2.0036: real time      2.0036
    SETDIJ:  cpu time      0.4107: real time      0.4107
    TRIAL :  cpu time      1.1830: real time      1.1830
    CORREC:  cpu time      7.2844: real time      7.2851
    CHARGE:  cpu time      4.3977: real time      4.3979
    --------------------------------------------
      LOOP:  cpu time     15.4415: real time     15.4509

 eigenvalue-minimisations  :     0
 total energy-change (2. order) : 0.4883807E-05  (-0.1614218E-05)
 number of electron      22.0000006 magnetization 
 augmentation part       10.6969913 magnetization 

 DIPCOR: dipole corrections for dipol
 direction  3 min pos     1,
 dipolmoment           0.000000      0.000000     -0.000006 electrons x Angstroem
 Tr[quadrupol]     -4915.494324

 energy correction for charged system         0.000000 eV
 dipol+quadrupol energy correction           -0.000000 eV
 added-field ion interaction          0.000010 eV  (added to PSCEN)


 Free energy of the ion-electron system (eV)
  ---------------------------------------------------
  alpha Z        PSCENC =         0.34431724
  Ewald energy   TEWEN  =       225.72110649
  -Hartree energ DENC   =     -2219.40439815
  -exchange      EXHF   =         0.00000000
  -V(xc)+E(xc)   XCENC  =         6.77917921
  PAW double counting   =      2248.99781030    -2234.78610856
  entropy T*S    EENTRO =        -0.00000000
  eigenvalues    EBANDS =      -159.96593918
  atomic energy  EATOM  =      2074.52556292
  ---------------------------------------------------
  free energy    TOTEN  =       -57.78846974 eV

  energy without entropy =      -57.78846974  energy(sigma->0) =      -57.78846974


--------------------------------------------------------------------------------------------------------




--------------------------------------- Iteration      1(  28)  ---------------------------------------


    POTLOK:  cpu time      2.0045: real time      2.0046
    SETDIJ:  cpu time      0.4070: real time      0.4075
    TRIAL :  cpu time      1.1846: real time      1.1847
    CORREC:  cpu time      7.3035: real time      7.3040
    CHARGE:  cpu time      4.3954: real time      4.3962
    --------------------------------------------
      LOOP:  cpu time     15.4748: real time     15.4774

 eigenvalue-minimisations  :     0
 total energy-change (2. order) : 0.4548872E-05  (-0.1412052E-05)
 number of electron      22.0000006 magnetization 
 augmentation part       10.6970027 magnetization 

 DIPCOR: dipole corrections for dipol
 direction  3 min pos     1,
 dipolmoment           0.000000      0.000000     -0.000006 electrons x Angstroem
 Tr[quadrupol]     -4915.494232

 energy correction for charged system         0.000000 eV
 dipol+quadrupol energy correction           -0.000000 eV
 added-field ion interaction          0.000010 eV  (added to PSCEN)


 Free energy of the ion-electron system (eV)
  ---------------------------------------------------
  alpha Z        PSCENC =         0.34431720
  Ewald energy   TEWEN  =       225.72110649
  -Hartree energ DENC   =     -2219.40365380
  -exchange      EXHF   =         0.00000000
  -V(xc)+E(xc)   XCENC  =         6.77914057
  PAW double counting   =      2249.13323844    -2234.92130649
  entropy T*S    EENTRO =        -0.00000000
  eigenvalues    EBANDS =      -159.96687051
  atomic energy  EATOM  =      2074.52556292
  ---------------------------------------------------
  free energy    TOTEN  =       -57.78846519 eV

  energy without entropy =      -57.78846519  energy(sigma->0) =      -57.78846519


--------------------------------------------------------------------------------------------------------




--------------------------------------- Iteration      1(  29)  ---------------------------------------


    POTLOK:  cpu time      1.9989: real time      1.9990
    SETDIJ:  cpu time      0.4133: real time      0.4134
    TRIAL :  cpu time      1.1829: real time      1.1829
    CORREC:  cpu time      7.2798: real time      7.2806
    CHARGE:  cpu time      4.3981: real time      4.3983
    --------------------------------------------
      LOOP:  cpu time     15.4427: real time     15.4443

 eigenvalue-minimisations  :     0
 total energy-change (2. order) : 0.4238937E-05  (-0.1242894E-05)
 number of electron      22.0000006 magnetization 
 augmentation part       10.6970133 magnetization 

 DIPCOR: dipole corrections for dipol
 direction  3 min pos     1,
 dipolmoment           0.000000      0.000000     -0.000006 electrons x Angstroem
 Tr[quadrupol]     -4915.494149

 energy correction for charged system         0.000000 eV
 dipol+quadrupol energy correction           -0.000000 eV
 added-field ion interaction          0.000010 eV  (added to PSCEN)


 Free energy of the ion-electron system (eV)
  ---------------------------------------------------
  alpha Z        PSCENC =         0.34431716
  Ewald energy   TEWEN  =       225.72110649
  -Hartree energ DENC   =     -2219.40296222
  -exchange      EXHF   =         0.00000000
  -V(xc)+E(xc)   XCENC  =         6.77910426
  PAW double counting   =      2249.25826662    -2235.04612728
  entropy T*S    EENTRO =        -0.00000000
  eigenvalues    EBANDS =      -159.96772890
  atomic energy  EATOM  =      2074.52556292
  ---------------------------------------------------
  free energy    TOTEN  =       -57.78846096 eV

  energy without entropy =      -57.78846096  energy(sigma->0) =      -57.78846096


--------------------------------------------------------------------------------------------------------




--------------------------------------- Iteration      1(  30)  ---------------------------------------


    POTLOK:  cpu time      2.0009: real time      2.0010
    SETDIJ:  cpu time      0.4120: real time      0.4120
    TRIAL :  cpu time      1.1923: real time      1.1924
    CORREC:  cpu time      7.3060: real time      7.3063
    CHARGE:  cpu time      4.3957: real time      4.3963
    --------------------------------------------
      LOOP:  cpu time     15.4795: real time     15.4811

 eigenvalue-minimisations  :     0
 total energy-change (2. order) : 0.3953796E-05  (-0.1099910E-05)
 number of electron      22.0000006 magnetization 
 augmentation part       10.6970232 magnetization 

 DIPCOR: dipole corrections for dipol
 direction  3 min pos     1,
 dipolmoment           0.000000      0.000000     -0.000006 electrons x Angstroem
[...]
  ---------------------------------------------------
  alpha Z        PSCENC =         0.34431683
  Ewald energy   TEWEN  =       225.72110649
  -Hartree energ DENC   =     -2219.39555055
  -exchange      EXHF   =         0.00000000
  -V(xc)+E(xc)   XCENC  =         6.77870118
  PAW double counting   =      2250.58206472    -2236.36805143
  entropy T*S    EENTRO =        -0.00000000
  eigenvalues    EBANDS =      -159.97656503
  atomic energy  EATOM  =      2074.52556292
  ---------------------------------------------------
  free energy    TOTEN  =       -57.78841488 eV

  energy without entropy =      -57.78841488  energy(sigma->0) =      -57.78841488


--------------------------------------------------------------------------------------------------------




--------------------------------------- Iteration      1(  50)  ---------------------------------------


    POTLOK:  cpu time      2.0049: real time      2.0056
    SETDIJ:  cpu time      0.4070: real time      0.4070
    TRIAL :  cpu time      1.1836: real time      1.1837
    CORREC:  cpu time      7.2956: real time      7.2959
    CHARGE:  cpu time      4.3946: real time      4.3955
    --------------------------------------------
      LOOP:  cpu time     15.4654: real time     15.4677

 eigenvalue-minimisations  :     0
 total energy-change (2. order) : 0.1174425E-05  (-0.1919751E-06)
 number of electron      22.0000006 magnetization 
 augmentation part       10.6971324 magnetization 

 DIPCOR: dipole corrections for dipol
 direction  3 min pos     1,
 dipolmoment           0.000000      0.000000     -0.000006 electrons x Angstroem
 Tr[quadrupol]     -4915.493322

 energy correction for charged system         0.000000 eV
 dipol+quadrupol energy correction           -0.000000 eV
 added-field ion interaction          0.000009 eV  (added to PSCEN)


 Free energy of the ion-electron system (eV)
  ---------------------------------------------------
  alpha Z        PSCENC =         0.34431682
  Ewald energy   TEWEN  =       225.72110649
  -Hartree energ DENC   =     -2219.39536631
  -exchange      EXHF   =         0.00000000
  -V(xc)+E(xc)   XCENC  =         6.77869092
  PAW double counting   =      2250.61559169    -2236.40153861
  entropy T*S    EENTRO =        -0.00000000
  eigenvalues    EBANDS =      -159.97677761
  atomic energy  EATOM  =      2074.52556292
  ---------------------------------------------------
  free energy    TOTEN  =       -57.78841370 eV

  energy without entropy =      -57.78841370  energy(sigma->0) =      -57.78841370


--------------------------------------------------------------------------------------------------------




--------------------------------------- Iteration      1(  51)  ---------------------------------------


    POTLOK:  cpu time      2.0015: real time      2.0016
    SETDIJ:  cpu time      0.4149: real time      0.4149
    TRIAL :  cpu time      1.1847: real time      1.1848
    CORREC:  cpu time      7.2906: real time      7.2913
    CHARGE:  cpu time      4.4043: real time      4.4045
    --------------------------------------------
      LOOP:  cpu time     15.4676: real time     15.4777

 eigenvalue-minimisations  :     0
 total energy-change (2. order) : 0.1112424E-05  (-0.1795495E-06)
 number of electron      22.0000006 magnetization 
 augmentation part       10.6971352 magnetization 

 DIPCOR: dipole corrections for dipol
 direction  3 min pos     1,
 dipolmoment           0.000000      0.000000     -0.000006 electrons x Angstroem
 Tr[quadrupol]     -4915.493305

 energy correction for charged system         0.000000 eV
 dipol+quadrupol energy correction           -0.000000 eV
 added-field ion interaction          0.000009 eV  (added to PSCEN)


 Free energy of the ion-electron system (eV)
  ---------------------------------------------------
  alpha Z        PSCENC =         0.34431682
  Ewald energy   TEWEN  =       225.72110649
  -Hartree energ DENC   =     -2219.39519206
  -exchange      EXHF   =         0.00000000
  -V(xc)+E(xc)   XCENC  =         6.77868120
  PAW double counting   =      2250.64736476    -2236.43327433
  entropy T*S    EENTRO =        -0.00000000
  eigenvalues    EBANDS =      -159.97697838
  atomic energy  EATOM  =      2074.52556292
  ---------------------------------------------------
  free energy    TOTEN  =       -57.78841259 eV

  energy without entropy =      -57.78841259  energy(sigma->0) =      -57.78841259


--------------------------------------------------------------------------------------------------------




--------------------------------------- Iteration      1(  52)  ---------------------------------------


    POTLOK:  cpu time      2.0043: real time      2.0048
    SETDIJ:  cpu time      0.4119: real time      0.4119
    TRIAL :  cpu time      1.1835: real time      1.1835
    CORREC:  cpu time      7.2922: real time      7.2925
    CHARGE:  cpu time      4.3975: real time      4.3987
    --------------------------------------------
      LOOP:  cpu time     15.4689: real time     15.4715

 eigenvalue-minimisations  :     0
 total energy-change (2. order) : 0.1054431E-05  (-0.1681245E-06)
 number of electron      22.0000006 magnetization 
 augmentation part       10.6971379 magnetization 

 DIPCOR: dipole corrections for dipol
 direction  3 min pos     1,
 dipolmoment           0.000000      0.000000     -0.000006 electrons x Angstroem
 Tr[quadrupol]     -4915.493289

 energy correction for charged system         0.000000 eV
 dipol+quadrupol energy correction           -0.000000 eV
 added-field ion interaction          0.000009 eV  (added to PSCEN)


 Free energy of the ion-electron system (eV)
  ---------------------------------------------------
  alpha Z        PSCENC =         0.34431681
  Ewald energy   TEWEN  =       225.72110649
  -Hartree energ DENC   =     -2219.39502712
  -exchange      EXHF   =         0.00000000
  -V(xc)+E(xc)   XCENC  =         6.77867199
  PAW double counting   =      2250.67748803    -2236.46336247
  entropy T*S    EENTRO =        -0.00000000
  eigenvalues    EBANDS =      -159.97716819
  atomic energy  EATOM  =      2074.52556292
  ---------------------------------------------------
  free energy    TOTEN  =       -57.78841153 eV

  energy without entropy =      -57.78841153  energy(sigma->0) =      -57.78841153


--------------------------------------------------------------------------------------------------------




--------------------------------------- Iteration      1(  53)  ---------------------------------------


    POTLOK:  cpu time      2.0030: real time      2.0031
    SETDIJ:  cpu time      0.4131: real time      0.4131
    TRIAL :  cpu time      1.1802: real time      1.1804
    CORREC:  cpu time      7.2894: real time      7.2905
    EDDIAG:  cpu time      0.3146: real time      0.3148
    CHARGE:  cpu time      4.3952: real time      4.3961
    --------------------------------------------
      LOOP:  cpu time     15.7696: real time     15.7724

 eigenvalue-minimisations  :     0
 total energy-change (2. order) : 0.9990815E-06  (-0.1575757E-06)
 number of electron      22.0000006 magnetization 
 augmentation part       10.6971404 magnetization 

 DIPCOR: dipole corrections for dipol
 direction  3 min pos     1,
 dipolmoment           0.000000      0.000000     -0.000006 electrons x Angstroem
 Tr[quadrupol]     -4915.493274

 energy correction for charged system         0.000000 eV
 dipol+quadrupol energy correction           -0.000000 eV
 added-field ion interaction          0.000009 eV  (added to PSCEN)


 Free energy of the ion-electron system (eV)
  ---------------------------------------------------
  alpha Z        PSCENC =         0.34431680
  Ewald energy   TEWEN  =       225.72110649
  -Hartree energ DENC   =     -2219.39487095
  -exchange      EXHF   =         0.00000000
  -V(xc)+E(xc)   XCENC  =         6.77866327
  PAW double counting   =      2250.70605818    -2236.49189957
  entropy T*S    EENTRO =        -0.00000000
  eigenvalues    EBANDS =      -159.97734767
  atomic energy  EATOM  =      2074.52556292
  ---------------------------------------------------
  free energy    TOTEN  =       -57.78841054 eV

  energy without entropy =      -57.78841054  energy(sigma->0) =      -57.78841054


--------------------------------------------------------------------------------------------------------


  average scaling for gradient   4.9737


 average (electrostatic) potential at core
  the test charge radii are     1.1249
  (the norm of the test charge is              1.0000)
       1 -87.0682       2 -87.0681



 E-fermi :  -5.0248     XC(G=0):  -0.0810     alpha+bet : -0.0465

 Fermi energy:        -5.0247750504

 k-point     1 :       0.0000    0.0000    0.0000
  band No.  band energies     occupation 
      1      -8.5332      2.00000
      2      -8.0215      2.00000
      3      -8.0215      2.00000
      4      -7.4678      2.00000
      5      -7.4653      2.00000
      6      -7.2511      2.00000
      7      -7.2488      2.00000
      8      -6.9604      2.00000
      9      -6.9604      2.00000
     10      -6.8051      2.00000
     11      -5.2543      2.00000
     12      -2.9128      0.00000
     13      -0.8303      0.00000
     14      -0.8303      0.00000
     15      -0.3250      0.00000
     16       0.1089      0.00000
     17       0.3734      0.00000
     18       0.3813      0.00000
     19       0.4072      0.00000
     20       0.4285      0.00000
     21       0.4285      0.00000
     22       0.4973      0.00000
     23       0.6076      0.00000
     24       0.6076      0.00000
     25       0.7028      0.00000
     26       0.7140      0.00000
     27       0.7159      0.00000
     28       0.7228      0.00000
     29       0.7246      0.00000
     30       0.7246      0.00000
     31       0.7317      0.00000
     32       0.7993      0.00000
     33       0.7993      0.00000
     34       0.8860      0.00000
     35       0.9001      0.00000
     36       0.9001      0.00000
     37       1.0388      0.00000
     38       1.0399      0.00000
     39       1.0411      0.00000
     40       1.1111      0.00000
     41       1.1111      0.00000
     42       1.1630      0.00000
     43       1.2375      0.00000
     44       1.2375      0.00000
     45       1.3150      0.00000
     46       1.3167      0.00000
     47       1.3725      0.00000
     48       1.4361      0.00000
     49       1.4361      0.00000
     50       1.4818      0.00000
     51       1.6227      0.00000
     52       1.6227      0.00000
     53       1.6360      0.00000
     54       1.6369      0.00000
     55       1.6585      0.00000
     56       1.6640      0.00000
     57       1.6641      0.00000
     58       1.6641      0.00000
     59       1.6751      0.00000
     60       1.6881      0.00000
     61       1.6960      0.00000
     62       1.7339      0.00000
     63       1.7341      0.00000
     64       1.7393      0.00000


--------------------------------------------------------------------------------------------------------


 soft charge-density along one line, spin component           1
         0         1         2         3         4         5         6         7         8         9
 total charge-density along one line

 pseudopotential strength for first ion, spin component:           1
-10.667   0.000  -0.000   0.000  -0.000 -10.656   0.000  -0.000
  0.000 -10.703   0.000   0.000  -0.000   0.000 -10.689   0.000
 -0.000   0.000 -10.719   0.000   0.000  -0.000   0.000 -10.704
  0.000   0.000   0.000 -10.703  -0.000   0.000   0.000   0.000
 -0.000  -0.000   0.000  -0.000 -10.667  -0.000  -0.000   0.000
-10.656   0.000  -0.000   0.000  -0.000 -10.620   0.000  -0.000
  0.000 -10.689   0.000   0.000  -0.000   0.000 -10.652   0.000
 -0.000   0.000 -10.704   0.000   0.000  -0.000   0.000 -10.666
  0.000   0.000   0.000 -10.689  -0.000   0.000   0.000   0.000
 -0.000  -0.000   0.000  -0.000 -10.656  -0.000  -0.000   0.000
 -0.000  -0.000   0.016  -0.000   0.000  -0.000  -0.000   0.016
 -0.000  -0.000   0.025  -0.000   0.000  -0.000  -0.000   0.026
  0.000   0.049  -0.000   0.000  -0.000   0.000   0.047  -0.000
  0.000  -0.000   0.050   0.000  -0.000   0.000  -0.000   0.045
  0.000   0.000   0.000   0.049  -0.000   0.000   0.000   0.000
  0.000   0.065  -0.000   0.000  -0.000   0.000   0.061  -0.000
  0.000  -0.000   0.071   0.000  -0.000   0.000  -0.000   0.065
  0.000   0.000   0.000   0.065  -0.000   0.000   0.000   0.000
 total augmentation occupancy for first ion, spin component:           1
  2.234   0.000   0.000   0.000   0.000  -0.127   0.000   0.000   0.000   0.000   0.000   0.000  -0.000   0.000   0.000   0.000
  0.000   2.406   0.000   0.000   0.000   0.000  -0.360   0.000   0.000   0.000   0.000   0.000   0.015   0.000  -0.000   0.027
  0.000   0.000   2.772   0.000  -0.000   0.000   0.000  -0.844   0.000   0.000  -1.589   0.489   0.000   0.155   0.000   0.000
  0.000   0.000   0.000   2.406   0.000  -0.000   0.000   0.000  -0.360  -0.000   0.000  -0.000  -0.000  -0.000   0.015  -0.000
  0.000   0.000  -0.000   0.000   2.228   0.000   0.000   0.000   0.000  -0.124   0.000  -0.000   0.000  -0.000   0.000   0.000
 -0.127   0.000   0.000  -0.000   0.000   0.019   0.000   0.000   0.000   0.000   0.000   0.000   0.000   0.000  -0.000   0.000
  0.000  -0.360   0.000   0.000   0.000   0.000   0.304   0.000   0.000   0.000  -0.000   0.000  -0.044   0.000   0.000   0.002
  0.000   0.000  -0.844   0.000   0.000   0.000   0.000   0.894   0.000  -0.000   1.219  -0.332   0.000  -0.204  -0.000   0.000
  0.000   0.000   0.000  -0.360   0.000   0.000   0.000   0.000   0.304   0.000   0.000   0.000   0.000   0.000  -0.044   0.000
  0.000   0.000   0.000  -0.000  -0.124   0.000   0.000  -0.000   0.000   0.018  -0.000   0.000   0.000   0.000  -0.000   0.000
  0.000   0.000  -1.589   0.000   0.000   0.000  -0.000   1.219   0.000  -0.000   3.548  -0.916   0.000  -0.354  -0.000   0.000
  0.000   0.000   0.489  -0.000  -0.000   0.000   0.000  -0.332   0.000   0.000  -0.916   0.239   0.000   0.092   0.000   0.000
 -0.000   0.015   0.000  -0.000   0.000   0.000  -0.044   0.000   0.000   0.000   0.000   0.000   0.007   0.000   0.000  -0.001
  0.000   0.000   0.155  -0.000  -0.000   0.000   0.000  -0.204   0.000   0.000  -0.354   0.092   0.000   0.051  -0.000   0.000
  0.000  -0.000   0.000   0.015   0.000  -0.000   0.000   0.000  -0.044  -0.000  -0.000  -0.000   0.000   0.000   0.007   0.000
  0.000   0.027   0.000  -0.000   0.000   0.000   0.002   0.000   0.000   0.000   0.000   0.000  -0.001   0.000   0.000   0.000
  0.000   0.000   0.014   0.000  -0.000   0.000   0.000   0.013   0.000  -0.000   0.015  -0.003   0.000  -0.004   0.000   0.000
  0.000   0.000   0.000   0.027   0.000   0.000   0.000   0.000   0.002   0.000   0.000  -0.000  -0.000  -0.000  -0.001   0.000


------------------------ aborting loop because EDIFF is reached ----------------------------------------


    FORLOC:  cpu time      0.0026: real time      0.0026
    FORNL :  cpu time      0.1162: real time      0.1164
    STRESS:  cpu time      7.8522: real time      7.8531
    FORCOR:  cpu time      1.8184: real time      1.8189
    OFIELD:  cpu time      0.0008: real time      0.0008

  FORCE on cell =-STRESS in cart. coord.  units (eV):
  Direction    XX          YY          ZZ          XY          YZ          ZX
  --------------------------------------------------------------------------------------
  Alpha Z     0.34431     0.34431     0.34431
  Ewald    -147.81632  -147.81632   521.35382    -0.00000    -0.00000    -0.00000
  Hartree   579.46421   579.46421  1060.46630    -0.00000    -0.00000    -0.00000
  E(xc)    -128.18794  -128.18794  -127.79081    -0.00000     0.00000    -0.00000
  Local    -751.68318  -751.68318 -1891.15002     0.00000     0.00000     0.00000
  n-local   -23.70585   -23.70585   -26.92266     0.00000    -0.00000     0.00000
  augment   193.71691   193.71691   191.96935     0.00000    -0.00000     0.00000
  Kinetic   277.84700   277.84699   271.07263    -0.00000     0.00000    -0.00000
  Fock        0.00000     0.00000     0.00000     0.00000     0.00000     0.00000
  -------------------------------------------------------------------------------------
  Total      -0.02088    -0.02088    -0.65708    -0.00000     0.00000     0.00000
  in kB      -0.00339    -0.00339    -0.10654    -0.00000     0.00000     0.00000
  external pressure =       -0.04 kB  Pullay stress =        0.00 kB


 VOLUME and BASIS-vectors are now :
 -----------------------------------------------------------------------------
  energy-cutoff  :      520.00
  volume of cell :     9881.61
      direct lattice vectors                 reciprocal lattice vectors
    21.138852197  0.000000000  0.000000000     0.047306258  0.000000000  0.000000000
     0.000000000 21.138852197  0.000000000     0.000000000  0.047306258  0.000000000
     0.000000000  0.000000000 22.113885220     0.000000000  0.000000000  0.045220457

  length of vectors
    21.138852197 21.138852197 22.113885220     0.047306258  0.047306258  0.045220457


 FORCES acting on ions:
    Electron-Ion                     Ewald-Force                    Non-Local-Force
 -----------------------------------------------------------------------------------------------
   -.249E-12 0.196E-11 -.276E+03   -.271E-16 0.110E-16 0.267E+03   0.165E-23 0.000E+00 0.919E+01
   -.541E-13 0.761E-12 0.276E+03   -.156E-16 0.865E-17 -.267E+03   -.662E-23 -.165E-23 -.919E+01
 -----------------------------------------------------------------------------------------------
   -.245E-09 -.503E-09 -.449E-04   -.427E-16 0.197E-16 0.000E+00   -.496E-23 -.165E-23 -.178E-14


 POSITION                                       TOTAL-FORCE (eV/Angst)
 -----------------------------------------------------------------------------------
     10.56943     10.56943     15.92762         0.000000      0.000000     -0.236815
     10.56943     10.56943     13.38041         0.000000     -0.000000      0.236815
 -----------------------------------------------------------------------------------
    total drift:                               -0.000000     -0.000000     -0.000045


--------------------------------------------------------------------------------------------------------



  FREE ENERGIE OF THE ION-ELECTRON SYSTEM (eV)
  ---------------------------------------------------
  free  energy   TOTEN  =       -57.78841054 eV

  energy  without entropy=      -57.78841054  energy(sigma->0) =      -57.78841054



--------------------------------------------------------------------------------------------------------


    POTLOK:  cpu time      2.6011: real time      2.6014


--------------------------------------------------------------------------------------------------------


     LOOP+:  cpu time    770.7470: real time    771.1086
    4ORBIT:  cpu time      0.0000: real time      0.0000

 total amount of memory used by VASP MPI-rank0   161896. kBytes
=======================================================================

   base      :      30000. kBytes
   nonlr-proj:        656. kBytes
   fftplans  :      38424. kBytes
   grid      :      89609. kBytes
   one-center:         15. kBytes
   wavefun   :       3192. kBytes

  
  
 General timing and accounting informations for this job:
 ========================================================
  
                  Total CPU time used (sec):      785.083
                            User time (sec):      690.991
                          System time (sec):       94.092
                         Elapsed time (sec):      790.147
  
                   Maximum memory used (kb):     1367792.
                   Average memory used (kb):          N/A
  
                          Minor page faults:     13442506
                          Major page faults:            0
                 Voluntary context switches:         8054
