 **********************************************************************
                          MRCC program system
 **********************************************************************
 
                              Written by
     Mihaly Kallay, Peter R. Nagy, David Mester, Laszlo Gyevi-Nagy,
        Jozsef Csoka, P. Bernat Szabo, Zoltan Rolik, Gyula Samu,
     Jozsef Csontos, Bence Hegely, Adam Ganyecz, Istvan Ladjanszki,
       Lorant Szegedy, Bence Ladoczki, Klara Petrov, Mate Farkas,
                    Pal D. Mezei, and Reka A. Horvath
 
        Department of Physical Chemistry and Materials Science
            Budapest University of Technology and Economics
                  Budapest P.O.Box 91, H-1521 Hungary
 
                              www.mrcc.hu
 
                      Release date: March 18, 2022

 ************************ 2023-01-10 21:14:34 *************************
 Executing minp...

 Reading input from MINP...
 
 Input file:
 
calc=LMP2
scftype=rhf
verbosity=3
mem=220GB
symm=off
unit=angs
scfiguess=small
scfmaxit=1000
scfalg=locfit1


lcorthr=normal
bpedo=0.99999

charge=-40
core=86

basis=special
bse_ACVTZ
bse_ACVTZ
bse_ACVTZ
bse_ACVTZ
aug-cc-pVTZ
bse_CVTZ
bse_CVTZ
bse_CVTZ
bse_CVTZ
bse_CVTZ
aug-cc-pVTZ
aug-cc-pVTZ
aug-cc-pVTZ
aug-cc-pVTZ
aug-cc-pVTZ
aug-cc-pVTZ
aug-cc-pVTZ
aug-cc-pVTZ
bse_CVTZ
bse_CVTZ
bse_CVTZ
bse_CVTZ
aug-cc-pVTZ
aug-cc-pVTZ
aug-cc-pVTZ
aug-cc-pVTZ
bse_CVTZ
bse_CVTZ
bse_CVTZ
bse_CVTZ
bse_CVTZ
bse_CVTZ
bse_CVTZ
bse_CVTZ
bse_CVTZ
bse_CVTZ
bse_CVTZ
aug-cc-pVTZ
aug-cc-pVTZ
aug-cc-pVTZ
aug-cc-pVTZ
aug-cc-pVTZ
aug-cc-pVTZ
aug-cc-pVTZ
aug-cc-pVTZ
aug-cc-pVTZ
aug-cc-pVTZ
aug-cc-pVTZ
aug-cc-pVTZ
bse_CVTZ
bse_CVTZ
bse_CVTZ
bse_CVTZ
bse_CVTZ
aug-cc-pVTZ
aug-cc-pVTZ
aug-cc-pVTZ
aug-cc-pVTZ
aug-cc-pVTZ
aug-cc-pVTZ
aug-cc-pVTZ
aug-cc-pVTZ
aug-cc-pVTZ
aug-cc-pVTZ
aug-cc-pVTZ
bse_CVTZ
bse_CVTZ
bse_CVTZ
bse_CVTZ
bse_CVTZ
bse_CVTZ
aug-cc-pVTZ
aug-cc-pVTZ
aug-cc-pVTZ
aug-cc-pVTZ
aug-cc-pVTZ
aug-cc-pVTZ
aug-cc-pVTZ
bse_CVTZ
bse_CVTZ
aug-cc-pVTZ
aug-cc-pVTZ
aug-cc-pVTZ
aug-cc-pVTZ
aug-cc-pVTZ
aug-cc-pVTZ
aug-cc-pVTZ
aug-cc-pVTZ
aug-cc-pVTZ
aug-cc-pVTZ
nothing
nothing
nothing
nothing
nothing
nothing
nothing
nothing
nothing
nothing
nothing
nothing
nothing
nothing
nothing
nothing
nothing
nothing
nothing
nothing
nothing
nothing
nothing
nothing
nothing
nothing
nothing
nothing
nothing
nothing
nothing
nothing
nothing
nothing
nothing
nothing
nothing
nothing
nothing
nothing
nothing
nothing
nothing
nothing
nothing
nothing
nothing
nothing
nothing
nothing
nothing
nothing
nothing
nothing
nothing
nothing
nothing
nothing
nothing
nothing
nothing
nothing
nothing
nothing

basis_sm=special
def2-SVP
def2-SVP
def2-SVP
def2-SVP
def2-SVP
def2-SVP
def2-SVP
def2-SVP
def2-SVP
def2-SVP
def2-SVP
def2-SVP
def2-SVP
def2-SVP
def2-SVP
def2-SVP
def2-SVP
def2-SVP
def2-SVP
def2-SVP
def2-SVP
def2-SVP
def2-SVP
def2-SVP
def2-SVP
def2-SVP
def2-SVP
def2-SVP
def2-SVP
def2-SVP
def2-SVP
def2-SVP
def2-SVP
def2-SVP
def2-SVP
def2-SVP
def2-SVP
def2-SVP
def2-SVP
def2-SVP
def2-SVP
def2-SVP
def2-SVP
def2-SVP
def2-SVP
def2-SVP
def2-SVP
def2-SVP
def2-SVP
def2-SVP
def2-SVP
def2-SVP
def2-SVP
def2-SVP
def2-SVP
def2-SVP
def2-SVP
def2-SVP
def2-SVP
def2-SVP
def2-SVP
def2-SVP
def2-SVP
def2-SVP
def2-SVP
def2-SVP
def2-SVP
def2-SVP
def2-SVP
def2-SVP
def2-SVP
def2-SVP
def2-SVP
def2-SVP
def2-SVP
def2-SVP
def2-SVP
def2-SVP
def2-SVP
def2-SVP
def2-SVP
def2-SVP
def2-SVP
def2-SVP
def2-SVP
def2-SVP
def2-SVP
def2-SVP
def2-SVP
def2-SVP
nothing
nothing
nothing
nothing
nothing
nothing
nothing
nothing
nothing
nothing
nothing
nothing
nothing
nothing
nothing
nothing
nothing
nothing
nothing
nothing
nothing
nothing
nothing
nothing
nothing
nothing
nothing
nothing
nothing
nothing
nothing
nothing
nothing
nothing
nothing
nothing
nothing
nothing
nothing
nothing
nothing
nothing
nothing
nothing
nothing
nothing
nothing
nothing
nothing
nothing
nothing
nothing
nothing
nothing
nothing
nothing
nothing
nothing
nothing
nothing
nothing
nothing
nothing
nothing

dfbasis_scf=special
def2-QZVPP-RI-JK
def2-QZVPP-RI-JK
def2-QZVPP-RI-JK
def2-QZVPP-RI-JK
def2-QZVPP-RI-JK
def2-QZVPP-RI-JK
def2-QZVPP-RI-JK
def2-QZVPP-RI-JK
def2-QZVPP-RI-JK
def2-QZVPP-RI-JK
def2-QZVPP-RI-JK
def2-QZVPP-RI-JK
def2-QZVPP-RI-JK
def2-QZVPP-RI-JK
def2-QZVPP-RI-JK
def2-QZVPP-RI-JK
def2-QZVPP-RI-JK
def2-QZVPP-RI-JK
def2-QZVPP-RI-JK
def2-QZVPP-RI-JK
def2-QZVPP-RI-JK
def2-QZVPP-RI-JK
def2-QZVPP-RI-JK
def2-QZVPP-RI-JK
def2-QZVPP-RI-JK
def2-QZVPP-RI-JK
def2-QZVPP-RI-JK
def2-QZVPP-RI-JK
def2-QZVPP-RI-JK
def2-QZVPP-RI-JK
def2-QZVPP-RI-JK
def2-QZVPP-RI-JK
def2-QZVPP-RI-JK
def2-QZVPP-RI-JK
def2-QZVPP-RI-JK
def2-QZVPP-RI-JK
def2-QZVPP-RI-JK
def2-QZVPP-RI-JK
def2-QZVPP-RI-JK
def2-QZVPP-RI-JK
def2-QZVPP-RI-JK
def2-QZVPP-RI-JK
def2-QZVPP-RI-JK
def2-QZVPP-RI-JK
def2-QZVPP-RI-JK
def2-QZVPP-RI-JK
def2-QZVPP-RI-JK
def2-QZVPP-RI-JK
def2-QZVPP-RI-JK
def2-QZVPP-RI-JK
def2-QZVPP-RI-JK
def2-QZVPP-RI-JK
def2-QZVPP-RI-JK
def2-QZVPP-RI-JK
def2-QZVPP-RI-JK
def2-QZVPP-RI-JK
def2-QZVPP-RI-JK
def2-QZVPP-RI-JK
def2-QZVPP-RI-JK
def2-QZVPP-RI-JK
def2-QZVPP-RI-JK
def2-QZVPP-RI-JK
def2-QZVPP-RI-JK
def2-QZVPP-RI-JK
def2-QZVPP-RI-JK
def2-QZVPP-RI-JK
def2-QZVPP-RI-JK
def2-QZVPP-RI-JK
def2-QZVPP-RI-JK
def2-QZVPP-RI-JK
def2-QZVPP-RI-JK
def2-QZVPP-RI-JK
def2-QZVPP-RI-JK
def2-QZVPP-RI-JK
def2-QZVPP-RI-JK
def2-QZVPP-RI-JK
def2-QZVPP-RI-JK
def2-QZVPP-RI-JK
def2-QZVPP-RI-JK
def2-QZVPP-RI-JK
def2-QZVPP-RI-JK
def2-QZVPP-RI-JK
def2-QZVPP-RI-JK
def2-QZVPP-RI-JK
def2-QZVPP-RI-JK
def2-QZVPP-RI-JK
def2-QZVPP-RI-JK
def2-QZVPP-RI-JK
def2-QZVPP-RI-JK
def2-QZVPP-RI-JK
nothing
nothing
nothing
nothing
nothing
nothing
nothing
nothing
nothing
nothing
nothing
nothing
nothing
nothing
nothing
nothing
nothing
nothing
nothing
nothing
nothing
nothing
nothing
nothing
nothing
nothing
nothing
nothing
nothing
nothing
nothing
nothing
nothing
nothing
nothing
nothing
nothing
nothing
nothing
nothing
nothing
nothing
nothing
nothing
nothing
nothing
nothing
nothing
nothing
nothing
nothing
nothing
nothing
nothing
nothing
nothing
nothing
nothing
nothing
nothing
nothing
nothing
nothing
nothing

dfbasis_cor=special
bse_ACVTZ_autoaux
bse_ACVTZ_autoaux
bse_ACVTZ_autoaux
bse_ACVTZ_autoaux
aug-cc-pVTZ-RI
bse_CVTZ_mp2fit
bse_CVTZ_mp2fit
bse_CVTZ_mp2fit
bse_CVTZ_mp2fit
bse_CVTZ_mp2fit
aug-cc-pVTZ-RI
aug-cc-pVTZ-RI
aug-cc-pVTZ-RI
aug-cc-pVTZ-RI
aug-cc-pVTZ-RI
aug-cc-pVTZ-RI
aug-cc-pVTZ-RI
aug-cc-pVTZ-RI
bse_CVTZ_mp2fit
bse_CVTZ_mp2fit
bse_CVTZ_mp2fit
bse_CVTZ_mp2fit
aug-cc-pVTZ-RI
aug-cc-pVTZ-RI
aug-cc-pVTZ-RI
aug-cc-pVTZ-RI
bse_CVTZ_mp2fit
bse_CVTZ_mp2fit
bse_CVTZ_mp2fit
bse_CVTZ_mp2fit
bse_CVTZ_mp2fit
bse_CVTZ_mp2fit
bse_CVTZ_mp2fit
bse_CVTZ_mp2fit
bse_CVTZ_mp2fit
bse_CVTZ_mp2fit
bse_CVTZ_mp2fit
aug-cc-pVTZ-RI
aug-cc-pVTZ-RI
aug-cc-pVTZ-RI
aug-cc-pVTZ-RI
aug-cc-pVTZ-RI
aug-cc-pVTZ-RI
aug-cc-pVTZ-RI
aug-cc-pVTZ-RI
aug-cc-pVTZ-RI
aug-cc-pVTZ-RI
aug-cc-pVTZ-RI
aug-cc-pVTZ-RI
bse_CVTZ_mp2fit
bse_CVTZ_mp2fit
bse_CVTZ_mp2fit
bse_CVTZ_mp2fit
bse_CVTZ_mp2fit
aug-cc-pVTZ-RI
aug-cc-pVTZ-RI
aug-cc-pVTZ-RI
aug-cc-pVTZ-RI
aug-cc-pVTZ-RI
aug-cc-pVTZ-RI
aug-cc-pVTZ-RI
aug-cc-pVTZ-RI
aug-cc-pVTZ-RI
aug-cc-pVTZ-RI
aug-cc-pVTZ-RI
bse_CVTZ_mp2fit
bse_CVTZ_mp2fit
bse_CVTZ_mp2fit
bse_CVTZ_mp2fit
bse_CVTZ_mp2fit
bse_CVTZ_mp2fit
aug-cc-pVTZ-RI
aug-cc-pVTZ-RI
aug-cc-pVTZ-RI
aug-cc-pVTZ-RI
aug-cc-pVTZ-RI
aug-cc-pVTZ-RI
aug-cc-pVTZ-RI
bse_CVTZ_mp2fit
bse_CVTZ_mp2fit
aug-cc-pVTZ-RI
aug-cc-pVTZ-RI
aug-cc-pVTZ-RI
aug-cc-pVTZ-RI
aug-cc-pVTZ-RI
aug-cc-pVTZ-RI
aug-cc-pVTZ-RI
aug-cc-pVTZ-RI
aug-cc-pVTZ-RI
aug-cc-pVTZ-RI
nothing
nothing
nothing
nothing
nothing
nothing
nothing
nothing
nothing
nothing
nothing
nothing
nothing
nothing
nothing
nothing
nothing
nothing
nothing
nothing
nothing
nothing
nothing
nothing
nothing
nothing
nothing
nothing
nothing
nothing
nothing
nothing
nothing
nothing
nothing
nothing
nothing
nothing
nothing
nothing
nothing
nothing
nothing
nothing
nothing
nothing
nothing
nothing
nothing
nothing
nothing
nothing
nothing
nothing
nothing
nothing
nothing
nothing
nothing
nothing
nothing
nothing
nothing
nothing

ecp=special
MCDHF-ECP-28
MCDHF-ECP-28
MCDHF-ECP-28
MCDHF-ECP-28
none
none
none
none
none
none
none
none
none
none
none
none
none
none
none
none
none
none
none
none
none
none
none
none
none
none
none
none
none
none
none
none
none
none
none
none
none
none
none
none
none
none
none
none
none
none
none
none
none
none
none
none
none
none
none
none
none
none
none
none
none
none
none
none
none
none
none
none
none
none
none
none
none
none
none
none
none
none
none
none
none
none
none
none
none
none
ECP-12
ECP-12
ECP-12
ECP-12
ECP-12
ECP-12
ECP-12
ECP-12
ECP-12
ECP-12
ECP-12
ECP-12
ECP-12
ECP-12
ECP-12
ECP-12
ECP-12
ECP-12
ECP-12
ECP-12
ECP-12
ECP-12
ECP-12
ECP-12
ECP-12
ECP-12
ECP-12
ECP-12
ECP-12
ECP-12
ECP-12
ECP-12
ECP-12
ECP-12
ECP-12
ECP-12
ECP-12
ECP-12
ECP-12
ECP-12
ECP-12
ECP-12
ECP-12
ECP-12
ECP-12
ECP-12
ECP-12
ECP-12
ECP-12
ECP-12
ECP-12
ECP-12
ECP-12
ECP-12
ECP-12
ECP-12
ECP-12
ECP-12
ECP-12
ECP-12
ECP-12
ECP-12
ECP-12
ECP-12

unit=angs
geom=xyz
154
Ag4 Mg33 O53 ECP64
Ag   -2.10833630531    1.32422652655    2.41444445585
Ag   -2.11007164552   -0.00300390184    7.35790964946
Ag   -2.11173330720   -0.01126490846    4.77492207652
Ag   -2.10969446559   -1.34655605411    2.41238102639
O     0.00000000000    0.00000000000    0.00000000000
Mg   -2.11388582115    0.00000000000    0.00000000000
Mg    0.00000000000    2.11388582115    0.00000000000
Mg    2.11388582115    0.00000000000    0.00000000000
Mg    0.00000000000   -2.11388582115    0.00000000000
Mg    0.00000000000    0.00000000000   -2.11388582115
O    -2.11388582115    2.11388582115    0.00000000000
O     2.11388582115    2.11388582115    0.00000000000
O     2.11388582115   -2.11388582115    0.00000000000
O    -2.11388582115   -2.11388582115    0.00000000000
O    -2.11388582115    0.00000000000   -2.11388582115
O     0.00000000000    2.11388582115   -2.11388582115
O     2.11388582115    0.00000000000   -2.11388582115
O     0.00000000000   -2.11388582115   -2.11388582115
Mg   -2.11388582115    2.11388582115   -2.11388582115
Mg    2.11388582115    2.11388582115   -2.11388582115
Mg    2.11388582115   -2.11388582115   -2.11388582115
Mg   -2.11388582115   -2.11388582115   -2.11388582115
O    -4.22777164231    0.00000000000    0.00000000000
O     0.00000000000    4.22777164231    0.00000000000
O     4.22777164231    0.00000000000    0.00000000000
O     0.00000000000   -4.22777164231    0.00000000000
Mg   -4.22777164231    2.11388582115    0.00000000000
Mg   -2.11388582115    4.22777164231    0.00000000000
Mg    2.11388582115    4.22777164231    0.00000000000
Mg    4.22777164231    2.11388582115    0.00000000000
Mg    4.22777164231   -2.11388582115    0.00000000000
Mg    2.11388582115   -4.22777164231    0.00000000000
Mg   -2.11388582115   -4.22777164231    0.00000000000
Mg   -4.22777164231   -2.11388582115    0.00000000000
Mg   -4.22777164231    0.00000000000   -2.11388582115
Mg    0.00000000000    4.22777164231   -2.11388582115
Mg    0.00000000000   -4.22777164231   -2.11388582115
O    -4.22777164231    2.11388582115   -2.11388582115
O    -2.11388582115    4.22777164231   -2.11388582115
O     2.11388582115    4.22777164231   -2.11388582115
O     4.22777164231    2.11388582115   -2.11388582115
O     4.22777164231   -2.11388582115   -2.11388582115
O     2.11388582115   -4.22777164231   -2.11388582115
O    -2.11388582115   -4.22777164231   -2.11388582115
O    -4.22777164231   -2.11388582115   -2.11388582115
O    -4.22777164231    4.22777164231    0.00000000000
O     4.22777164231    4.22777164231    0.00000000000
O     4.22777164231   -4.22777164231    0.00000000000
O    -4.22777164231   -4.22777164231    0.00000000000
Mg   -6.34165746346    0.00000000000    0.00000000000
Mg    0.00000000000    6.34165746346    0.00000000000
Mg    0.00000000000   -6.34165746346    0.00000000000
Mg   -4.22777164231    4.22777164231   -2.11388582115
Mg   -4.22777164231   -4.22777164231   -2.11388582115
O    -6.34165746346    2.11388582115    0.00000000000
O    -2.11388582115    6.34165746346    0.00000000000
O     2.11388582115    6.34165746346    0.00000000000
O     6.34165746346    2.11388582115    0.00000000000
O     6.34165746346   -2.11388582115    0.00000000000
O     2.11388582115   -6.34165746346    0.00000000000
O    -2.11388582115   -6.34165746346    0.00000000000
O    -6.34165746346   -2.11388582115    0.00000000000
O    -6.34165746346    0.00000000000   -2.11388582115
O     0.00000000000    6.34165746346   -2.11388582115
O     0.00000000000   -6.34165746346   -2.11388582115
Mg   -6.34165746346    2.11388582115   -2.11388582115
Mg   -6.34165746346   -2.11388582115   -2.11388582115
Mg   -6.34165746346    4.22777164231    0.00000000000
Mg   -4.22777164231    6.34165746346    0.00000000000
Mg   -4.22777164231   -6.34165746346    0.00000000000
Mg   -6.34165746346   -4.22777164231    0.00000000000
O    -6.34165746346    4.22777164231   -2.11388582115
O    -4.22777164231    6.34165746346   -2.11388582115
O    -4.22777164231   -6.34165746346   -2.11388582115
O    -6.34165746346   -4.22777164231   -2.11388582115
O    -8.45554328461    0.00000000000    0.00000000000
O     0.00000000000    8.45554328461    0.00000000000
O     0.00000000000   -8.45554328461    0.00000000000
Mg   -8.45554328461    2.11388582115    0.00000000000
Mg   -8.45554328461   -2.11388582115    0.00000000000
O    -6.34165746346    6.34165746346    0.00000000000
O    -6.34165746346   -6.34165746346    0.00000000000
O    -8.45554328461    2.11388582115   -2.11388582115
O    -8.45554328461   -2.11388582115   -2.11388582115
O    -8.45554328461    4.22777164231    0.00000000000
O    -4.22777164231    8.45554328461    0.00000000000
O    -4.22777164231   -8.45554328461    0.00000000000
O    -8.45554328461   -4.22777164231    0.00000000000
O   -10.56942910577    2.11388582115    0.00000000000
O   -10.56942910577   -2.11388582115    0.00000000000
Mg    4.22777164231    0.00000000000   -2.11388582115
Mg    6.34165746346    0.00000000000    0.00000000000
Mg    4.22777164231    4.22777164231   -2.11388582115
Mg    4.22777164231   -4.22777164231   -2.11388582115
Mg   -2.11388582115    6.34165746346   -2.11388582115
Mg    2.11388582115    6.34165746346   -2.11388582115
Mg    6.34165746346    2.11388582115   -2.11388582115
Mg    6.34165746346   -2.11388582115   -2.11388582115
Mg    2.11388582115   -6.34165746346   -2.11388582115
Mg   -2.11388582115   -6.34165746346   -2.11388582115
Mg    4.22777164231    6.34165746346    0.00000000000
Mg    6.34165746346    4.22777164231    0.00000000000
Mg    6.34165746346   -4.22777164231    0.00000000000
Mg    4.22777164231   -6.34165746346    0.00000000000
Mg   -2.11388582115    8.45554328461    0.00000000000
Mg    2.11388582115    8.45554328461    0.00000000000
Mg    8.45554328461    2.11388582115    0.00000000000
Mg    8.45554328461   -2.11388582115    0.00000000000
Mg    2.11388582115   -8.45554328461    0.00000000000
Mg   -2.11388582115   -8.45554328461    0.00000000000
Mg   -8.45554328461    0.00000000000   -2.11388582115
Mg    0.00000000000    8.45554328461   -2.11388582115
Mg    8.45554328461    0.00000000000   -2.11388582115
Mg    0.00000000000   -8.45554328461   -2.11388582115
Mg   -6.34165746346    6.34165746346   -2.11388582115
Mg    6.34165746346    6.34165746346   -2.11388582115
Mg    6.34165746346   -6.34165746346   -2.11388582115
Mg   -6.34165746346   -6.34165746346   -2.11388582115
Mg   -8.45554328461    4.22777164231   -2.11388582115
Mg   -4.22777164231    8.45554328461   -2.11388582115
Mg    4.22777164231    8.45554328461   -2.11388582115
Mg    8.45554328461    4.22777164231   -2.11388582115
Mg    8.45554328461   -4.22777164231   -2.11388582115
Mg    4.22777164231   -8.45554328461   -2.11388582115
Mg   -4.22777164231   -8.45554328461   -2.11388582115
Mg   -8.45554328461   -4.22777164231   -2.11388582115
Mg  -10.56942910577    0.00000000000    0.00000000000
Mg   -8.45554328461    6.34165746346    0.00000000000
Mg   -6.34165746346    8.45554328461    0.00000000000
Mg    0.00000000000   10.56942910577    0.00000000000
Mg    0.00000000000  -10.56942910577    0.00000000000
Mg   -6.34165746346   -8.45554328461    0.00000000000
Mg   -8.45554328461   -6.34165746346    0.00000000000
Mg  -10.56942910577    2.11388582115   -2.11388582115
Mg   -2.11388582115   10.56942910577   -2.11388582115
Mg    2.11388582115   10.56942910577   -2.11388582115
Mg    2.11388582115  -10.56942910577   -2.11388582115
Mg   -2.11388582115  -10.56942910577   -2.11388582115
Mg  -10.56942910577   -2.11388582115   -2.11388582115
Mg  -10.56942910577    4.22777164231    0.00000000000
Mg   -4.22777164231   10.56942910577    0.00000000000
Mg   -4.22777164231  -10.56942910577    0.00000000000
Mg  -10.56942910577   -4.22777164231    0.00000000000
Mg   -8.45554328461    8.45554328461   -2.11388582115
Mg   -8.45554328461   -8.45554328461   -2.11388582115
Mg  -10.56942910577    6.34165746346   -2.11388582115
Mg   -6.34165746346   10.56942910577   -2.11388582115
Mg   -6.34165746346  -10.56942910577   -2.11388582115
Mg  -10.56942910577   -6.34165746346   -2.11388582115
Mg  -12.68331492692    2.11388582115    0.00000000000
Mg  -12.68331492692   -2.11388582115    0.00000000000
Mg  -12.68331492692    0.00000000000   -2.11388582115
Mg  -12.68331492692    4.22777164231   -2.11388582115
Mg  -12.68331492692   -4.22777164231   -2.11388582115


ghost=serialno


qmmm=Amber
pointcharges
8963
      4.22777164231    0.00000000000   -2.11388582115    2.00000000000
      6.34165746346    0.00000000000    0.00000000000    2.00000000000
      4.22777164231    4.22777164231   -2.11388582115    2.00000000000
      4.22777164231   -4.22777164231   -2.11388582115    2.00000000000
      6.34165746346    0.00000000000   -2.11388582115   -2.00000000000
     -2.11388582115    6.34165746346   -2.11388582115    2.00000000000
      2.11388582115    6.34165746346   -2.11388582115    2.00000000000
      6.34165746346    2.11388582115   -2.11388582115    2.00000000000
      6.34165746346   -2.11388582115   -2.11388582115    2.00000000000
      2.11388582115   -6.34165746346   -2.11388582115    2.00000000000
     -2.11388582115   -6.34165746346   -2.11388582115    2.00000000000
      4.22777164231    6.34165746346    0.00000000000    2.00000000000
      6.34165746346    4.22777164231    0.00000000000    2.00000000000
      6.34165746346   -4.22777164231    0.00000000000    2.00000000000
      4.22777164231   -6.34165746346    0.00000000000    2.00000000000
      4.22777164231    6.34165746346   -2.11388582115   -2.00000000000
      6.34165746346    4.22777164231   -2.11388582115   -2.00000000000
      6.34165746346   -4.22777164231   -2.11388582115   -2.00000000000
      4.22777164231   -6.34165746346   -2.11388582115   -2.00000000000
      8.45554328461    0.00000000000    0.00000000000   -2.00000000000
     -2.11388582115    8.45554328461    0.00000000000    2.00000000000
      2.11388582115    8.45554328461    0.00000000000    2.00000000000
      8.45554328461    2.11388582115    0.00000000000    2.00000000000
      8.45554328461   -2.11388582115    0.00000000000    2.00000000000
      2.11388582115   -8.45554328461    0.00000000000    2.00000000000
     -2.11388582115   -8.45554328461    0.00000000000    2.00000000000
     -8.45554328461    0.00000000000   -2.11388582115    2.00000000000
      0.00000000000    8.45554328461   -2.11388582115    2.00000000000
      8.45554328461    0.00000000000   -2.11388582115    2.00000000000
      0.00000000000   -8.45554328461   -2.11388582115    2.00000000000
      6.34165746346    6.34165746346    0.00000000000   -2.00000000000
      6.34165746346   -6.34165746346    0.00000000000   -2.00000000000
     -2.11388582115    8.45554328461   -2.11388582115   -2.00000000000
      2.11388582115    8.45554328461   -2.11388582115   -2.00000000000
      8.45554328461    2.11388582115   -2.11388582115   -2.00000000000
      8.45554328461   -2.11388582115   -2.11388582115   -2.00000000000
      2.11388582115   -8.45554328461   -2.11388582115   -2.00000000000
     -2.11388582115   -8.45554328461   -2.11388582115   -2.00000000000
     -6.34165746346    6.34165746346   -2.11388582115    2.00000000000
      6.34165746346    6.34165746346   -2.11388582115    2.00000000000
      6.34165746346   -6.34165746346   -2.11388582115    2.00000000000
     -6.34165746346   -6.34165746346   -2.11388582115    2.00000000000
      4.22777164231    8.45554328461    0.00000000000   -2.00000000000
      8.45554328461    4.22777164231    0.00000000000   -2.00000000000
      8.45554328461   -4.22777164231    0.00000000000   -2.00000000000
      4.22777164231   -8.45554328461    0.00000000000   -2.00000000000
     -8.45554328461    4.22777164231   -2.11388582115    2.00000000000
     -4.22777164231    8.45554328461   -2.11388582115    2.00000000000
      4.22777164231    8.45554328461   -2.11388582115    2.00000000000
      8.45554328461    4.22777164231   -2.11388582115    2.00000000000
      8.45554328461   -4.22777164231   -2.11388582115    2.00000000000
      4.22777164231   -8.45554328461   -2.11388582115    2.00000000000
     -4.22777164231   -8.45554328461   -2.11388582115    2.00000000000
     -8.45554328461   -4.22777164231   -2.11388582115    2.00000000000
    -10.56942910577    0.00000000000    0.00000000000    2.00000000000
     -8.45554328461    6.34165746346    0.00000000000    2.00000000000
     -6.34165746346    8.45554328461    0.00000000000    2.00000000000
      0.00000000000   10.56942910577    0.00000000000    2.00000000000
      0.00000000000  -10.56942910577    0.00000000000    2.00000000000
     -6.34165746346   -8.45554328461    0.00000000000    2.00000000000
     -8.45554328461   -6.34165746346    0.00000000000    2.00000000000
     -2.11388582115   10.56942910577    0.00000000000   -2.00000000000
      2.11388582115   10.56942910577    0.00000000000   -2.00000000000
      2.11388582115  -10.56942910577    0.00000000000   -2.00000000000
     -2.11388582115  -10.56942910577    0.00000000000   -2.00000000000
    -10.56942910577    0.00000000000   -2.11388582115   -2.00000000000
     -8.45554328461    6.34165746346   -2.11388582115   -2.00000000000
     -6.34165746346    8.45554328461   -2.11388582115   -2.00000000000
      0.00000000000   10.56942910577   -2.11388582115   -2.00000000000
      0.00000000000  -10.56942910577   -2.11388582115   -2.00000000000
     -6.34165746346   -8.45554328461   -2.11388582115   -2.00000000000
     -8.45554328461   -6.34165746346   -2.11388582115   -2.00000000000
    -10.56942910577    2.11388582115   -2.11388582115    2.00000000000
     -2.11388582115   10.56942910577   -2.11388582115    2.00000000000
      2.11388582115   10.56942910577   -2.11388582115    2.00000000000
      2.11388582115  -10.56942910577   -2.11388582115    2.00000000000
     -2.11388582115  -10.56942910577   -2.11388582115    2.00000000000
    -10.56942910577   -2.11388582115   -2.11388582115    2.00000000000
    -10.56942910577    4.22777164231    0.00000000000    2.00000000000
     -4.22777164231   10.56942910577    0.00000000000    2.00000000000
     -4.22777164231  -10.56942910577    0.00000000000    2.00000000000
    -10.56942910577   -4.22777164231    0.00000000000    2.00000000000
    -10.56942910577    4.22777164231   -2.11388582115   -2.00000000000
     -4.22777164231   10.56942910577   -2.11388582115   -2.00000000000
     -4.22777164231  -10.56942910577   -2.11388582115   -2.00000000000
    -10.56942910577   -4.22777164231   -2.11388582115   -2.00000000000
     -8.45554328461    8.45554328461    0.00000000000   -2.00000000000
     -8.45554328461   -8.45554328461    0.00000000000   -2.00000000000
     -8.45554328461    8.45554328461   -2.11388582115    2.00000000000
     -8.45554328461   -8.45554328461   -2.11388582115    2.00000000000
    -10.56942910577    6.34165746346    0.00000000000   -2.00000000000
     -6.34165746346   10.56942910577    0.00000000000   -2.00000000000
     -6.34165746346  -10.56942910577    0.00000000000   -2.00000000000
    -10.56942910577   -6.34165746346    0.00000000000   -2.00000000000
    -10.56942910577    6.34165746346   -2.11388582115    2.00000000000
     -6.34165746346   10.56942910577   -2.11388582115    2.00000000000
     -6.34165746346  -10.56942910577   -2.11388582115    2.00000000000
    -10.56942910577   -6.34165746346   -2.11388582115    2.00000000000
    -12.68331492692    0.00000000000    0.00000000000   -2.00000000000
    -12.68331492692    2.11388582115    0.00000000000    2.00000000000
    -12.68331492692   -2.11388582115    0.00000000000    2.00000000000
    -12.68331492692    0.00000000000   -2.11388582115    2.00000000000
    -12.68331492692    2.11388582115   -2.11388582115   -2.00000000000
    -12.68331492692   -2.11388582115   -2.11388582115   -2.00000000000
    -12.68331492692    4.22777164231    0.00000000000   -2.00000000000
    -12.68331492692   -4.22777164231    0.00000000000   -2.00000000000
    -12.68331492692    4.22777164231   -2.11388582115    2.00000000000
    -12.68331492692   -4.22777164231   -2.11388582115    2.00000000000
      6.34165746346    8.45554328461    0.00000000000    2.00000000000
      8.45554328461    6.34165746346    0.00000000000    2.00000000000
     10.56942910577    0.00000000000    0.00000000000    2.00000000000
      8.45554328461   -6.34165746346    0.00000000000    2.00000000000
      6.34165746346   -8.45554328461    0.00000000000    2.00000000000
     10.56942910577    2.11388582115    0.00000000000   -2.00000000000
     10.56942910577   -2.11388582115    0.00000000000   -2.00000000000
      6.34165746346    8.45554328461   -2.11388582115   -2.00000000000
      8.45554328461    6.34165746346   -2.11388582115   -2.00000000000
     10.56942910577    0.00000000000   -2.11388582115   -2.00000000000
      8.45554328461   -6.34165746346   -2.11388582115   -2.00000000000
      6.34165746346   -8.45554328461   -2.11388582115   -2.00000000000
     10.56942910577    2.11388582115   -2.11388582115    2.00000000000
     10.56942910577   -2.11388582115   -2.11388582115    2.00000000000
      4.22777164231   10.56942910577    0.00000000000    2.00000000000
     10.56942910577    4.22777164231    0.00000000000    2.00000000000
     10.56942910577   -4.22777164231    0.00000000000    2.00000000000
      4.22777164231  -10.56942910577    0.00000000000    2.00000000000
      4.22777164231   10.56942910577   -2.11388582115   -2.00000000000
     10.56942910577    4.22777164231   -2.11388582115   -2.00000000000
     10.56942910577   -4.22777164231   -2.11388582115   -2.00000000000
      4.22777164231  -10.56942910577   -2.11388582115   -2.00000000000
      8.45554328461    8.45554328461    0.00000000000   -2.00000000000
      8.45554328461   -8.45554328461    0.00000000000   -2.00000000000
      8.45554328461    8.45554328461   -2.11388582115    2.00000000000
      8.45554328461   -8.45554328461   -2.11388582115    2.00000000000
      6.34165746346   10.56942910577    0.00000000000   -2.00000000000
     10.56942910577    6.34165746346    0.00000000000   -2.00000000000
     10.56942910577   -6.34165746346    0.00000000000   -2.00000000000
      6.34165746346  -10.56942910577    0.00000000000   -2.00000000000
      6.34165746346   10.56942910577   -2.11388582115    2.00000000000
     10.56942910577    6.34165746346   -2.11388582115    2.00000000000
     10.56942910577   -6.34165746346   -2.11388582115    2.00000000000
      6.34165746346  -10.56942910577   -2.11388582115    2.00000000000
      0.00000000000   12.68331492692    0.00000000000   -2.00000000000
     12.68331492692    0.00000000000    0.00000000000   -2.00000000000
      0.00000000000  -12.68331492692    0.00000000000   -2.00000000000
     -2.11388582115   12.68331492692    0.00000000000    2.00000000000
      2.11388582115   12.68331492692    0.00000000000    2.00000000000
     12.68331492692    2.11388582115    0.00000000000    2.00000000000
     12.68331492692   -2.11388582115    0.00000000000    2.00000000000
      2.11388582115  -12.68331492692    0.00000000000    2.00000000000
     -2.11388582115  -12.68331492692    0.00000000000    2.00000000000
      0.00000000000   12.68331492692   -2.11388582115    2.00000000000
     12.68331492692    0.00000000000   -2.11388582115    2.00000000000
      0.00000000000  -12.68331492692   -2.11388582115    2.00000000000
     -2.11388582115   12.68331492692   -2.11388582115   -2.00000000000
      2.11388582115   12.68331492692   -2.11388582115   -2.00000000000
     12.68331492692    2.11388582115   -2.11388582115   -2.00000000000
     12.68331492692   -2.11388582115   -2.11388582115   -2.00000000000
      2.11388582115  -12.68331492692   -2.11388582115   -2.00000000000
     -2.11388582115  -12.68331492692   -2.11388582115   -2.00000000000
     -4.22777164231   12.68331492692    0.00000000000   -2.00000000000
      4.22777164231   12.68331492692    0.00000000000   -2.00000000000
     12.68331492692    4.22777164231    0.00000000000   -2.00000000000
     12.68331492692   -4.22777164231    0.00000000000   -2.00000000000
      4.22777164231  -12.68331492692    0.00000000000   -2.00000000000
     -4.22777164231  -12.68331492692    0.00000000000   -2.00000000000
    -10.56942910577    8.45554328461    0.00000000000    2.00000000000
     -8.45554328461   10.56942910577    0.00000000000    2.00000000000
      8.45554328461   10.56942910577    0.00000000000    2.00000000000
     10.56942910577    8.45554328461    0.00000000000    2.00000000000
     10.56942910577   -8.45554328461    0.00000000000    2.00000000000
      8.45554328461  -10.56942910577    0.00000000000    2.00000000000
     -8.45554328461  -10.56942910577    0.00000000000    2.00000000000
    -10.56942910577   -8.45554328461    0.00000000000    2.00000000000
     -4.22777164231   12.68331492692   -2.11388582115    2.00000000000
      4.22777164231   12.68331492692   -2.11388582115    2.00000000000
     12.68331492692    4.22777164231   -2.11388582115    2.00000000000
     12.68331492692   -4.22777164231   -2.11388582115    2.00000000000
      4.22777164231  -12.68331492692   -2.11388582115    2.00000000000
     -4.22777164231  -12.68331492692   -2.11388582115    2.00000000000
    -10.56942910577    8.45554328461   -2.11388582115   -2.00000000000
     -8.45554328461   10.56942910577   -2.11388582115   -2.00000000000
      8.45554328461   10.56942910577   -2.11388582115   -2.00000000000
     10.56942910577    8.45554328461   -2.11388582115   -2.00000000000
     10.56942910577   -8.45554328461   -2.11388582115   -2.00000000000
      8.45554328461  -10.56942910577   -2.11388582115   -2.00000000000
     -8.45554328461  -10.56942910577   -2.11388582115   -2.00000000000
    -10.56942910577   -8.45554328461   -2.11388582115   -2.00000000000
    -12.68331492692    6.34165746346    0.00000000000    2.00000000000
     -6.34165746346   12.68331492692    0.00000000000    2.00000000000
      6.34165746346   12.68331492692    0.00000000000    2.00000000000
     12.68331492692    6.34165746346    0.00000000000    2.00000000000
     12.68331492692   -6.34165746346    0.00000000000    2.00000000000
      6.34165746346  -12.68331492692    0.00000000000    2.00000000000
     -6.34165746346  -12.68331492692    0.00000000000    2.00000000000
    -12.68331492692   -6.34165746346    0.00000000000    2.00000000000
    -12.68331492692    6.34165746346   -2.11388582115   -2.00000000000
     -6.34165746346   12.68331492692   -2.11388582115   -2.00000000000
      6.34165746346   12.68331492692   -2.11388582115   -2.00000000000
     12.68331492692    6.34165746346   -2.11388582115   -2.00000000000
     12.68331492692   -6.34165746346   -2.11388582115   -2.00000000000
      6.34165746346  -12.68331492692   -2.11388582115   -2.00000000000
     -6.34165746346  -12.68331492692   -2.11388582115   -2.00000000000
    -12.68331492692   -6.34165746346   -2.11388582115   -2.00000000000
    -14.79720074808    0.00000000000    0.00000000000    2.00000000000
      0.00000000000   14.79720074808    0.00000000000    2.00000000000
     14.79720074808    0.00000000000    0.00000000000    2.00000000000
      0.00000000000  -14.79720074808    0.00000000000    2.00000000000
    -14.79720074808    2.11388582115    0.00000000000   -2.00000000000
    -10.56942910577   10.56942910577    0.00000000000   -2.00000000000
     -2.11388582115   14.79720074808    0.00000000000   -2.00000000000
      2.11388582115   14.79720074808    0.00000000000   -2.00000000000
     10.56942910577   10.56942910577    0.00000000000   -2.00000000000
     14.79720074808    2.11388582115    0.00000000000   -2.00000000000
     14.79720074808   -2.11388582115    0.00000000000   -2.00000000000
     10.56942910577  -10.56942910577    0.00000000000   -2.00000000000
      2.11388582115  -14.79720074808    0.00000000000   -2.00000000000
     -2.11388582115  -14.79720074808    0.00000000000   -2.00000000000
    -10.56942910577  -10.56942910577    0.00000000000   -2.00000000000
    -14.79720074808   -2.11388582115    0.00000000000   -2.00000000000
    -14.79720074808    0.00000000000   -2.11388582115   -2.00000000000
      0.00000000000   14.79720074808   -2.11388582115   -2.00000000000
     14.79720074808    0.00000000000   -2.11388582115   -2.00000000000
      0.00000000000  -14.79720074808   -2.11388582115   -2.00000000000
    -14.79720074808    2.11388582115   -2.11388582115    2.00000000000
    -10.56942910577   10.56942910577   -2.11388582115    2.00000000000
     -2.11388582115   14.79720074808   -2.11388582115    2.00000000000
      2.11388582115   14.79720074808   -2.11388582115    2.00000000000
     10.56942910577   10.56942910577   -2.11388582115    2.00000000000
     14.79720074808    2.11388582115   -2.11388582115    2.00000000000
     14.79720074808   -2.11388582115   -2.11388582115    2.00000000000
     10.56942910577  -10.56942910577   -2.11388582115    2.00000000000
      2.11388582115  -14.79720074808   -2.11388582115    2.00000000000
     -2.11388582115  -14.79720074808   -2.11388582115    2.00000000000
    -10.56942910577  -10.56942910577   -2.11388582115    2.00000000000
    -14.79720074808   -2.11388582115   -2.11388582115    2.00000000000
    -12.68331492692    8.45554328461    0.00000000000   -2.00000000000
     -8.45554328461   12.68331492692    0.00000000000   -2.00000000000
      8.45554328461   12.68331492692    0.00000000000   -2.00000000000
     12.68331492692    8.45554328461    0.00000000000   -2.00000000000
     12.68331492692   -8.45554328461    0.00000000000   -2.00000000000
      8.45554328461  -12.68331492692    0.00000000000   -2.00000000000
     -8.45554328461  -12.68331492692    0.00000000000   -2.00000000000
    -12.68331492692   -8.45554328461    0.00000000000   -2.00000000000
    -14.79720074808    4.22777164231    0.00000000000    2.00000000000
     -4.22777164231   14.79720074808    0.00000000000    2.00000000000
      4.22777164231   14.79720074808    0.00000000000    2.00000000000
     14.79720074808    4.22777164231    0.00000000000    2.00000000000
     14.79720074808   -4.22777164231    0.00000000000    2.00000000000
      4.22777164231  -14.79720074808    0.00000000000    2.00000000000
     -4.22777164231  -14.79720074808    0.00000000000    2.00000000000
    -14.79720074808   -4.22777164231    0.00000000000    2.00000000000
    -12.68331492692    8.45554328461   -2.11388582115    2.00000000000
     -8.45554328461   12.68331492692   -2.11388582115    2.00000000000
      8.45554328461   12.68331492692   -2.11388582115    2.00000000000
     12.68331492692    8.45554328461   -2.11388582115    2.00000000000
     12.68331492692   -8.45554328461   -2.11388582115    2.00000000000
      8.45554328461  -12.68331492692   -2.11388582115    2.00000000000
     -8.45554328461  -12.68331492692   -2.11388582115    2.00000000000
    -12.68331492692   -8.45554328461   -2.11388582115    2.00000000000
    -14.79720074808    4.22777164231   -2.11388582115   -2.00000000000
     -4.22777164231   14.79720074808   -2.11388582115   -2.00000000000
      4.22777164231   14.79720074808   -2.11388582115   -2.00000000000
     14.79720074808    4.22777164231   -2.11388582115   -2.00000000000
     14.79720074808   -4.22777164231   -2.11388582115   -2.00000000000
      4.22777164231  -14.79720074808   -2.11388582115   -2.00000000000
     -4.22777164231  -14.79720074808   -2.11388582115   -2.00000000000
    -14.79720074808   -4.22777164231   -2.11388582115   -2.00000000000
    -14.79720074808    6.34165746346    0.00000000000   -2.00000000000
     -6.34165746346   14.79720074808    0.00000000000   -2.00000000000
      6.34165746346   14.79720074808    0.00000000000   -2.00000000000
     14.79720074808    6.34165746346    0.00000000000   -2.00000000000
     14.79720074808   -6.34165746346    0.00000000000   -2.00000000000
      6.34165746346  -14.79720074808    0.00000000000   -2.00000000000
     -6.34165746346  -14.79720074808    0.00000000000   -2.00000000000
    -14.79720074808   -6.34165746346    0.00000000000   -2.00000000000
    -14.79720074808    6.34165746346   -2.11388582115    2.00000000000
     -6.34165746346   14.79720074808   -2.11388582115    2.00000000000
      6.34165746346   14.79720074808   -2.11388582115    2.00000000000
     14.79720074808    6.34165746346   -2.11388582115    2.00000000000
     14.79720074808   -6.34165746346   -2.11388582115    2.00000000000
      6.34165746346  -14.79720074808   -2.11388582115    2.00000000000
     -6.34165746346  -14.79720074808   -2.11388582115    2.00000000000
    -14.79720074808   -6.34165746346   -2.11388582115    2.00000000000
    -12.68331492692   10.56942910577    0.00000000000    2.00000000000
    -10.56942910577   12.68331492692    0.00000000000    2.00000000000
     10.56942910577   12.68331492692    0.00000000000    2.00000000000
     12.68331492692   10.56942910577    0.00000000000    2.00000000000
     12.68331492692  -10.56942910577    0.00000000000    2.00000000000
     10.56942910577  -12.68331492692    0.00000000000    2.00000000000
    -10.56942910577  -12.68331492692    0.00000000000    2.00000000000
    -12.68331492692  -10.56942910577    0.00000000000    2.00000000000
    -12.68331492692   10.56942910577   -2.11388582115   -2.00000000000
    -10.56942910577   12.68331492692   -2.11388582115   -2.00000000000
     10.56942910577   12.68331492692   -2.11388582115   -2.00000000000
     12.68331492692   10.56942910577   -2.11388582115   -2.00000000000
     12.68331492692  -10.56942910577   -2.11388582115   -2.00000000000
     10.56942910577  -12.68331492692   -2.11388582115   -2.00000000000
    -10.56942910577  -12.68331492692   -2.11388582115   -2.00000000000
    -12.68331492692  -10.56942910577   -2.11388582115   -2.00000000000
    -16.91108656923    0.00000000000    0.00000000000   -2.00000000000
      0.00000000000   16.91108656923    0.00000000000   -2.00000000000
     16.91108656923    0.00000000000    0.00000000000   -2.00000000000
      0.00000000000  -16.91108656923    0.00000000000   -2.00000000000
    -16.91108656923    2.11388582115    0.00000000000    2.00000000000
    -14.79720074808    8.45554328461    0.00000000000    2.00000000000
     -8.45554328461   14.79720074808    0.00000000000    2.00000000000
     -2.11388582115   16.91108656923    0.00000000000    2.00000000000
      2.11388582115   16.91108656923    0.00000000000    2.00000000000
      8.45554328461   14.79720074808    0.00000000000    2.00000000000
     14.79720074808    8.45554328461    0.00000000000    2.00000000000
     16.91108656923    2.11388582115    0.00000000000    2.00000000000
     16.91108656923   -2.11388582115    0.00000000000    2.00000000000
     14.79720074808   -8.45554328461    0.00000000000    2.00000000000
      8.45554328461  -14.79720074808    0.00000000000    2.00000000000
      2.11388582115  -16.91108656923    0.00000000000    2.00000000000
     -2.11388582115  -16.91108656923    0.00000000000    2.00000000000
     -8.45554328461  -14.79720074808    0.00000000000    2.00000000000
    -14.79720074808   -8.45554328461    0.00000000000    2.00000000000
    -16.91108656923   -2.11388582115    0.00000000000    2.00000000000
    -16.91108656923    0.00000000000   -2.11388582115    2.00000000000
      0.00000000000   16.91108656923   -2.11388582115    2.00000000000
     16.91108656923    0.00000000000   -2.11388582115    2.00000000000
      0.00000000000  -16.91108656923   -2.11388582115    2.00000000000
    -16.91108656923    2.11388582115   -2.11388582115   -2.00000000000
    -14.79720074808    8.45554328461   -2.11388582115   -2.00000000000
     -8.45554328461   14.79720074808   -2.11388582115   -2.00000000000
     -2.11388582115   16.91108656923   -2.11388582115   -2.00000000000
      2.11388582115   16.91108656923   -2.11388582115   -2.00000000000
      8.45554328461   14.79720074808   -2.11388582115   -2.00000000000
     14.79720074808    8.45554328461   -2.11388582115   -2.00000000000
     16.91108656923    2.11388582115   -2.11388582115   -2.00000000000
     16.91108656923   -2.11388582115   -2.11388582115   -2.00000000000
     14.79720074808   -8.45554328461   -2.11388582115   -2.00000000000
      8.45554328461  -14.79720074808   -2.11388582115   -2.00000000000
      2.11388582115  -16.91108656923   -2.11388582115   -2.00000000000
     -2.11388582115  -16.91108656923   -2.11388582115   -2.00000000000
     -8.45554328461  -14.79720074808   -2.11388582115   -2.00000000000
    -14.79720074808   -8.45554328461   -2.11388582115   -2.00000000000
    -16.91108656923   -2.11388582115   -2.11388582115   -2.00000000000
    -16.91108656923    4.22777164231    0.00000000000   -2.00000000000
     -4.22777164231   16.91108656923    0.00000000000   -2.00000000000
      4.22777164231   16.91108656923    0.00000000000   -2.00000000000
     16.91108656923    4.22777164231    0.00000000000   -2.00000000000
     16.91108656923   -4.22777164231    0.00000000000   -2.00000000000
      4.22777164231  -16.91108656923    0.00000000000   -2.00000000000
     -4.22777164231  -16.91108656923    0.00000000000   -2.00000000000
    -16.91108656923   -4.22777164231    0.00000000000   -2.00000000000
    -16.91108656923    4.22777164231   -2.11388582115    2.00000000000
     -4.22777164231   16.91108656923   -2.11388582115    2.00000000000
      4.22777164231   16.91108656923   -2.11388582115    2.00000000000
     16.91108656923    4.22777164231   -2.11388582115    2.00000000000
     16.91108656923   -4.22777164231   -2.11388582115    2.00000000000
      4.22777164231  -16.91108656923   -2.11388582115    2.00000000000
     -4.22777164231  -16.91108656923   -2.11388582115    2.00000000000
    -16.91108656923   -4.22777164231   -2.11388582115    2.00000000000
    -12.68331492692   12.68331492692    0.00000000000   -2.00000000000
     12.68331492692   12.68331492692    0.00000000000   -2.00000000000
     12.68331492692  -12.68331492692    0.00000000000   -2.00000000000
    -12.68331492692  -12.68331492692    0.00000000000   -2.00000000000
    -16.91108656923    6.34165746346    0.00000000000    2.00000000000
     -6.34165746346   16.91108656923    0.00000000000    2.00000000000
      6.34165746346   16.91108656923    0.00000000000    2.00000000000
     16.91108656923    6.34165746346    0.00000000000    2.00000000000
     16.91108656923   -6.34165746346    0.00000000000    2.00000000000
      6.34165746346  -16.91108656923    0.00000000000    2.00000000000
     -6.34165746346  -16.91108656923    0.00000000000    2.00000000000
    -16.91108656923   -6.34165746346    0.00000000000    2.00000000000
    -12.68331492692   12.68331492692   -2.11388582115    2.00000000000
     12.68331492692   12.68331492692   -2.11388582115    2.00000000000
     12.68331492692  -12.68331492692   -2.11388582115    2.00000000000
    -12.68331492692  -12.68331492692   -2.11388582115    2.00000000000
    -14.79720074808   10.56942910577    0.00000000000   -2.00000000000
    -10.56942910577   14.79720074808    0.00000000000   -2.00000000000
     10.56942910577   14.79720074808    0.00000000000   -2.00000000000
     14.79720074808   10.56942910577    0.00000000000   -2.00000000000
     14.79720074808  -10.56942910577    0.00000000000   -2.00000000000
     10.56942910577  -14.79720074808    0.00000000000   -2.00000000000
    -10.56942910577  -14.79720074808    0.00000000000   -2.00000000000
    -14.79720074808  -10.56942910577    0.00000000000   -2.00000000000
    -16.91108656923    6.34165746346   -2.11388582115   -2.00000000000
     -6.34165746346   16.91108656923   -2.11388582115   -2.00000000000
      6.34165746346   16.91108656923   -2.11388582115   -2.00000000000
     16.91108656923    6.34165746346   -2.11388582115   -2.00000000000
     16.91108656923   -6.34165746346   -2.11388582115   -2.00000000000
      6.34165746346  -16.91108656923   -2.11388582115   -2.00000000000
     -6.34165746346  -16.91108656923   -2.11388582115   -2.00000000000
    -16.91108656923   -6.34165746346   -2.11388582115   -2.00000000000
    -14.79720074808   10.56942910577   -2.11388582115    2.00000000000
    -10.56942910577   14.79720074808   -2.11388582115    2.00000000000
     10.56942910577   14.79720074808   -2.11388582115    2.00000000000
     14.79720074808   10.56942910577   -2.11388582115    2.00000000000
     14.79720074808  -10.56942910577   -2.11388582115    2.00000000000
     10.56942910577  -14.79720074808   -2.11388582115    2.00000000000
    -10.56942910577  -14.79720074808   -2.11388582115    2.00000000000
    -14.79720074808  -10.56942910577   -2.11388582115    2.00000000000
    -16.91108656923    8.45554328461    0.00000000000   -2.00000000000
     -8.45554328461   16.91108656923    0.00000000000   -2.00000000000
      8.45554328461   16.91108656923    0.00000000000   -2.00000000000
     16.91108656923    8.45554328461    0.00000000000   -2.00000000000
     16.91108656923   -8.45554328461    0.00000000000   -2.00000000000
      8.45554328461  -16.91108656923    0.00000000000   -2.00000000000
     -8.45554328461  -16.91108656923    0.00000000000   -2.00000000000
    -16.91108656923   -8.45554328461    0.00000000000   -2.00000000000
    -19.02497239038    0.00000000000    0.00000000000    2.00000000000
      0.00000000000   19.02497239038    0.00000000000    2.00000000000
     19.02497239038    0.00000000000    0.00000000000    2.00000000000
      0.00000000000  -19.02497239038    0.00000000000    2.00000000000
    -16.91108656923    8.45554328461   -2.11388582115    2.00000000000
     -8.45554328461   16.91108656923   -2.11388582115    2.00000000000
      8.45554328461   16.91108656923   -2.11388582115    2.00000000000
     16.91108656923    8.45554328461   -2.11388582115    2.00000000000
     16.91108656923   -8.45554328461   -2.11388582115    2.00000000000
      8.45554328461  -16.91108656923   -2.11388582115    2.00000000000
     -8.45554328461  -16.91108656923   -2.11388582115    2.00000000000
    -16.91108656923   -8.45554328461   -2.11388582115    2.00000000000
    -19.02497239038    2.11388582115    0.00000000000   -2.00000000000
     -2.11388582115   19.02497239038    0.00000000000   -2.00000000000
      2.11388582115   19.02497239038    0.00000000000   -2.00000000000
     19.02497239038    2.11388582115    0.00000000000   -2.00000000000
     19.02497239038   -2.11388582115    0.00000000000   -2.00000000000
      2.11388582115  -19.02497239038    0.00000000000   -2.00000000000
     -2.11388582115  -19.02497239038    0.00000000000   -2.00000000000
    -19.02497239038   -2.11388582115    0.00000000000   -2.00000000000
    -19.02497239038    0.00000000000   -2.11388582115   -2.00000000000
      0.00000000000   19.02497239038   -2.11388582115   -2.00000000000
     19.02497239038    0.00000000000   -2.11388582115   -2.00000000000
      0.00000000000  -19.02497239038   -2.11388582115   -2.00000000000
    -19.02497239038    2.11388582115   -2.11388582115    2.00000000000
     -2.11388582115   19.02497239038   -2.11388582115    2.00000000000
      2.11388582115   19.02497239038   -2.11388582115    2.00000000000
     19.02497239038    2.11388582115   -2.11388582115    2.00000000000
     19.02497239038   -2.11388582115   -2.11388582115    2.00000000000
      2.11388582115  -19.02497239038   -2.11388582115    2.00000000000
     -2.11388582115  -19.02497239038   -2.11388582115    2.00000000000
    -19.02497239038   -2.11388582115   -2.11388582115    2.00000000000
    -19.02497239038    4.22777164231    0.00000000000    2.00000000000
    -14.79720074808   12.68331492692    0.00000000000    2.00000000000
    -12.68331492692   14.79720074808    0.00000000000    2.00000000000
     -4.22777164231   19.02497239038    0.00000000000    2.00000000000
      4.22777164231   19.02497239038    0.00000000000    2.00000000000
     12.68331492692   14.79720074808    0.00000000000    2.00000000000
     14.79720074808   12.68331492692    0.00000000000    2.00000000000
     19.02497239038    4.22777164231    0.00000000000    2.00000000000
     19.02497239038   -4.22777164231    0.00000000000    2.00000000000
     14.79720074808  -12.68331492692    0.00000000000    2.00000000000
     12.68331492692  -14.79720074808    0.00000000000    2.00000000000
      4.22777164231  -19.02497239038    0.00000000000    2.00000000000
     -4.22777164231  -19.02497239038    0.00000000000    2.00000000000
    -12.68331492692  -14.79720074808    0.00000000000    2.00000000000
    -14.79720074808  -12.68331492692    0.00000000000    2.00000000000
    -19.02497239038   -4.22777164231    0.00000000000    2.00000000000
    -19.02497239038    4.22777164231   -2.11388582115   -2.00000000000
    -14.79720074808   12.68331492692   -2.11388582115   -2.00000000000
    -12.68331492692   14.79720074808   -2.11388582115   -2.00000000000
     -4.22777164231   19.02497239038   -2.11388582115   -2.00000000000
      4.22777164231   19.02497239038   -2.11388582115   -2.00000000000
     12.68331492692   14.79720074808   -2.11388582115   -2.00000000000
     14.79720074808   12.68331492692   -2.11388582115   -2.00000000000
     19.02497239038    4.22777164231   -2.11388582115   -2.00000000000
     19.02497239038   -4.22777164231   -2.11388582115   -2.00000000000
     14.79720074808  -12.68331492692   -2.11388582115   -2.00000000000
     12.68331492692  -14.79720074808   -2.11388582115   -2.00000000000
      4.22777164231  -19.02497239038   -2.11388582115   -2.00000000000
     -4.22777164231  -19.02497239038   -2.11388582115   -2.00000000000
    -12.68331492692  -14.79720074808   -2.11388582115   -2.00000000000
    -14.79720074808  -12.68331492692   -2.11388582115   -2.00000000000
    -19.02497239038   -4.22777164231   -2.11388582115   -2.00000000000
    -16.91108656923   10.56942910577    0.00000000000    2.00000000000
    -10.56942910577   16.91108656923    0.00000000000    2.00000000000
     10.56942910577   16.91108656923    0.00000000000    2.00000000000
     16.91108656923   10.56942910577    0.00000000000    2.00000000000
     16.91108656923  -10.56942910577    0.00000000000    2.00000000000
     10.56942910577  -16.91108656923    0.00000000000    2.00000000000
    -10.56942910577  -16.91108656923    0.00000000000    2.00000000000
    -16.91108656923  -10.56942910577    0.00000000000    2.00000000000
    -19.02497239038    6.34165746346    0.00000000000   -2.00000000000
     -6.34165746346   19.02497239038    0.00000000000   -2.00000000000
      6.34165746346   19.02497239038    0.00000000000   -2.00000000000
     19.02497239038    6.34165746346    0.00000000000   -2.00000000000
     19.02497239038   -6.34165746346    0.00000000000   -2.00000000000
      6.34165746346  -19.02497239038    0.00000000000   -2.00000000000
     -6.34165746346  -19.02497239038    0.00000000000   -2.00000000000
    -19.02497239038   -6.34165746346    0.00000000000   -2.00000000000
    -16.91108656923   10.56942910577   -2.11388582115   -2.00000000000
    -10.56942910577   16.91108656923   -2.11388582115   -2.00000000000
     10.56942910577   16.91108656923   -2.11388582115   -2.00000000000
     16.91108656923   10.56942910577   -2.11388582115   -2.00000000000
     16.91108656923  -10.56942910577   -2.11388582115   -2.00000000000
     10.56942910577  -16.91108656923   -2.11388582115   -2.00000000000
    -10.56942910577  -16.91108656923   -2.11388582115   -2.00000000000
    -16.91108656923  -10.56942910577   -2.11388582115   -2.00000000000
    -19.02497239038    6.34165746346   -2.11388582115    2.00000000000
     -6.34165746346   19.02497239038   -2.11388582115    2.00000000000
      6.34165746346   19.02497239038   -2.11388582115    2.00000000000
     19.02497239038    6.34165746346   -2.11388582115    2.00000000000
     19.02497239038   -6.34165746346   -2.11388582115    2.00000000000
      6.34165746346  -19.02497239038   -2.11388582115    2.00000000000
     -6.34165746346  -19.02497239038   -2.11388582115    2.00000000000
    -19.02497239038   -6.34165746346   -2.11388582115    2.00000000000
    -19.02497239038    8.45554328461    0.00000000000    2.00000000000
     -8.45554328461   19.02497239038    0.00000000000    2.00000000000
      8.45554328461   19.02497239038    0.00000000000    2.00000000000
     19.02497239038    8.45554328461    0.00000000000    2.00000000000
     19.02497239038   -8.45554328461    0.00000000000    2.00000000000
      8.45554328461  -19.02497239038    0.00000000000    2.00000000000
     -8.45554328461  -19.02497239038    0.00000000000    2.00000000000
    -19.02497239038   -8.45554328461    0.00000000000    2.00000000000
    -14.79720074808   14.79720074808    0.00000000000   -2.00000000000
     14.79720074808   14.79720074808    0.00000000000   -2.00000000000
     14.79720074808  -14.79720074808    0.00000000000   -2.00000000000
    -14.79720074808  -14.79720074808    0.00000000000   -2.00000000000
    -19.02497239038    8.45554328461   -2.11388582115   -2.00000000000
     -8.45554328461   19.02497239038   -2.11388582115   -2.00000000000
      8.45554328461   19.02497239038   -2.11388582115   -2.00000000000
     19.02497239038    8.45554328461   -2.11388582115   -2.00000000000
     19.02497239038   -8.45554328461   -2.11388582115   -2.00000000000
      8.45554328461  -19.02497239038   -2.11388582115   -2.00000000000
     -8.45554328461  -19.02497239038   -2.11388582115   -2.00000000000
    -19.02497239038   -8.45554328461   -2.11388582115   -2.00000000000
    -14.79720074808   14.79720074808   -2.11388582115    2.00000000000
     14.79720074808   14.79720074808   -2.11388582115    2.00000000000
     14.79720074808  -14.79720074808   -2.11388582115    2.00000000000
    -14.79720074808  -14.79720074808   -2.11388582115    2.00000000000
    -21.13885821154    0.00000000000    0.00000000000   -2.00000000000
    -16.91108656923   12.68331492692    0.00000000000   -2.00000000000
    -12.68331492692   16.91108656923    0.00000000000   -2.00000000000
      0.00000000000   21.13885821154    0.00000000000   -2.00000000000
     12.68331492692   16.91108656923    0.00000000000   -2.00000000000
     16.91108656923   12.68331492692    0.00000000000   -2.00000000000
     21.13885821154    0.00000000000    0.00000000000   -2.00000000000
     16.91108656923  -12.68331492692    0.00000000000   -2.00000000000
     12.68331492692  -16.91108656923    0.00000000000   -2.00000000000
      0.00000000000  -21.13885821154    0.00000000000   -2.00000000000
    -12.68331492692  -16.91108656923    0.00000000000   -2.00000000000
    -16.91108656923  -12.68331492692    0.00000000000   -2.00000000000
    -21.13885821154    2.11388582115    0.00000000000    2.00000000000
     -2.11388582115   21.13885821154    0.00000000000    2.00000000000
      2.11388582115   21.13885821154    0.00000000000    2.00000000000
     21.13885821154    2.11388582115    0.00000000000    2.00000000000
     21.13885821154   -2.11388582115    0.00000000000    2.00000000000
      2.11388582115  -21.13885821154    0.00000000000    2.00000000000
     -2.11388582115  -21.13885821154    0.00000000000    2.00000000000
    -21.13885821154   -2.11388582115    0.00000000000    2.00000000000
    -21.13885821154    0.00000000000   -2.11388582115    2.00000000000
    -16.91108656923   12.68331492692   -2.11388582115    2.00000000000
    -12.68331492692   16.91108656923   -2.11388582115    2.00000000000
      0.00000000000   21.13885821154   -2.11388582115    2.00000000000
     12.68331492692   16.91108656923   -2.11388582115    2.00000000000
     16.91108656923   12.68331492692   -2.11388582115    2.00000000000
     21.13885821154    0.00000000000   -2.11388582115    2.00000000000
     16.91108656923  -12.68331492692   -2.11388582115    2.00000000000
     12.68331492692  -16.91108656923   -2.11388582115    2.00000000000
      0.00000000000  -21.13885821154   -2.11388582115    2.00000000000
    -12.68331492692  -16.91108656923   -2.11388582115    2.00000000000
    -16.91108656923  -12.68331492692   -2.11388582115    2.00000000000
    -21.13885821154    2.11388582115   -2.11388582115   -2.00000000000
     -2.11388582115   21.13885821154   -2.11388582115   -2.00000000000
      2.11388582115   21.13885821154   -2.11388582115   -2.00000000000
     21.13885821154    2.11388582115   -2.11388582115   -2.00000000000
     21.13885821154   -2.11388582115   -2.11388582115   -2.00000000000
      2.11388582115  -21.13885821154   -2.11388582115   -2.00000000000
     -2.11388582115  -21.13885821154   -2.11388582115   -2.00000000000
    -21.13885821154   -2.11388582115   -2.11388582115   -2.00000000000
    -21.13885821154    4.22777164231    0.00000000000   -2.00000000000
     -4.22777164231   21.13885821154    0.00000000000   -2.00000000000
      4.22777164231   21.13885821154    0.00000000000   -2.00000000000
     21.13885821154    4.22777164231    0.00000000000   -2.00000000000
     21.13885821154   -4.22777164231    0.00000000000   -2.00000000000
      4.22777164231  -21.13885821154    0.00000000000   -2.00000000000
     -4.22777164231  -21.13885821154    0.00000000000   -2.00000000000
    -21.13885821154   -4.22777164231    0.00000000000   -2.00000000000
    -21.13885821154    4.22777164231   -2.11388582115    2.00000000000
     -4.22777164231   21.13885821154   -2.11388582115    2.00000000000
      4.22777164231   21.13885821154   -2.11388582115    2.00000000000
     21.13885821154    4.22777164231   -2.11388582115    2.00000000000
     21.13885821154   -4.22777164231   -2.11388582115    2.00000000000
      4.22777164231  -21.13885821154   -2.11388582115    2.00000000000
     -4.22777164231  -21.13885821154   -2.11388582115    2.00000000000
    -21.13885821154   -4.22777164231   -2.11388582115    2.00000000000
    -19.02497239038   10.56942910577    0.00000000000   -2.00000000000
    -10.56942910577   19.02497239038    0.00000000000   -2.00000000000
     10.56942910577   19.02497239038    0.00000000000   -2.00000000000
     19.02497239038   10.56942910577    0.00000000000   -2.00000000000
     19.02497239038  -10.56942910577    0.00000000000   -2.00000000000
     10.56942910577  -19.02497239038    0.00000000000   -2.00000000000
    -10.56942910577  -19.02497239038    0.00000000000   -2.00000000000
    -19.02497239038  -10.56942910577    0.00000000000   -2.00000000000
    -19.02497239038   10.56942910577   -2.11388582115    2.00000000000
    -10.56942910577   19.02497239038   -2.11388582115    2.00000000000
     10.56942910577   19.02497239038   -2.11388582115    2.00000000000
     19.02497239038   10.56942910577   -2.11388582115    2.00000000000
     19.02497239038  -10.56942910577   -2.11388582115    2.00000000000
     10.56942910577  -19.02497239038   -2.11388582115    2.00000000000
    -10.56942910577  -19.02497239038   -2.11388582115    2.00000000000
    -19.02497239038  -10.56942910577   -2.11388582115    2.00000000000
    -21.13885821154    6.34165746346    0.00000000000    2.00000000000
     -6.34165746346   21.13885821154    0.00000000000    2.00000000000
      6.34165746346   21.13885821154    0.00000000000    2.00000000000
     21.13885821154    6.34165746346    0.00000000000    2.00000000000
     21.13885821154   -6.34165746346    0.00000000000    2.00000000000
      6.34165746346  -21.13885821154    0.00000000000    2.00000000000
     -6.34165746346  -21.13885821154    0.00000000000    2.00000000000
    -21.13885821154   -6.34165746346    0.00000000000    2.00000000000
    -21.13885821154    6.34165746346   -2.11388582115   -2.00000000000
     -6.34165746346   21.13885821154   -2.11388582115   -2.00000000000
      6.34165746346   21.13885821154   -2.11388582115   -2.00000000000
     21.13885821154    6.34165746346   -2.11388582115   -2.00000000000
     21.13885821154   -6.34165746346   -2.11388582115   -2.00000000000
      6.34165746346  -21.13885821154   -2.11388582115   -2.00000000000
     -6.34165746346  -21.13885821154   -2.11388582115   -2.00000000000
    -21.13885821154   -6.34165746346   -2.11388582115   -2.00000000000
    -16.91108656923   14.79720074808    0.00000000000    2.00000000000
    -14.79720074808   16.91108656923    0.00000000000    2.00000000000
     14.79720074808   16.91108656923    0.00000000000    2.00000000000
     16.91108656923   14.79720074808    0.00000000000    2.00000000000
     16.91108656923  -14.79720074808    0.00000000000    2.00000000000
     14.79720074808  -16.91108656923    0.00000000000    2.00000000000
    -14.79720074808  -16.91108656923    0.00000000000    2.00000000000
    -16.91108656923  -14.79720074808    0.00000000000    2.00000000000
    -16.91108656923   14.79720074808   -2.11388582115   -2.00000000000
    -14.79720074808   16.91108656923   -2.11388582115   -2.00000000000
     14.79720074808   16.91108656923   -2.11388582115   -2.00000000000
     16.91108656923   14.79720074808   -2.11388582115   -2.00000000000
     16.91108656923  -14.79720074808   -2.11388582115   -2.00000000000
     14.79720074808  -16.91108656923   -2.11388582115   -2.00000000000
    -14.79720074808  -16.91108656923   -2.11388582115   -2.00000000000
    -16.91108656923  -14.79720074808   -2.11388582115   -2.00000000000
    -21.13885821154    8.45554328461    0.00000000000   -2.00000000000
     -8.45554328461   21.13885821154    0.00000000000   -2.00000000000
      8.45554328461   21.13885821154    0.00000000000   -2.00000000000
     21.13885821154    8.45554328461    0.00000000000   -2.00000000000
     21.13885821154   -8.45554328461    0.00000000000   -2.00000000000
      8.45554328461  -21.13885821154    0.00000000000   -2.00000000000
     -8.45554328461  -21.13885821154    0.00000000000   -2.00000000000
    -21.13885821154   -8.45554328461    0.00000000000   -2.00000000000
    -19.02497239038   12.68331492692    0.00000000000    2.00000000000
    -12.68331492692   19.02497239038    0.00000000000    2.00000000000
     12.68331492692   19.02497239038    0.00000000000    2.00000000000
     19.02497239038   12.68331492692    0.00000000000    2.00000000000
     19.02497239038  -12.68331492692    0.00000000000    2.00000000000
     12.68331492692  -19.02497239038    0.00000000000    2.00000000000
    -12.68331492692  -19.02497239038    0.00000000000    2.00000000000
    -19.02497239038  -12.68331492692    0.00000000000    2.00000000000
    -21.13885821154    8.45554328461   -2.11388582115    2.00000000000
     -8.45554328461   21.13885821154   -2.11388582115    2.00000000000
      8.45554328461   21.13885821154   -2.11388582115    2.00000000000
     21.13885821154    8.45554328461   -2.11388582115    2.00000000000
     21.13885821154   -8.45554328461   -2.11388582115    2.00000000000
      8.45554328461  -21.13885821154   -2.11388582115    2.00000000000
     -8.45554328461  -21.13885821154   -2.11388582115    2.00000000000
    -21.13885821154   -8.45554328461   -2.11388582115    2.00000000000
    -19.02497239038   12.68331492692   -2.11388582115   -2.00000000000
    -12.68331492692   19.02497239038   -2.11388582115   -2.00000000000
     12.68331492692   19.02497239038   -2.11388582115   -2.00000000000
     19.02497239038   12.68331492692   -2.11388582115   -2.00000000000
     19.02497239038  -12.68331492692   -2.11388582115   -2.00000000000
     12.68331492692  -19.02497239038   -2.11388582115   -2.00000000000
    -12.68331492692  -19.02497239038   -2.11388582115   -2.00000000000
    -19.02497239038  -12.68331492692   -2.11388582115   -2.00000000000
    -23.25274403269    0.00000000000    0.00000000000    2.00000000000
      0.00000000000   23.25274403269    0.00000000000    2.00000000000
     23.25274403269    0.00000000000    0.00000000000    2.00000000000
      0.00000000000  -23.25274403269    0.00000000000    2.00000000000
    -23.25274403269    2.11388582115    0.00000000000   -2.00000000000
     -2.11388582115   23.25274403269    0.00000000000   -2.00000000000
      2.11388582115   23.25274403269    0.00000000000   -2.00000000000
     23.25274403269    2.11388582115    0.00000000000   -2.00000000000
     23.25274403269   -2.11388582115    0.00000000000   -2.00000000000
      2.11388582115  -23.25274403269    0.00000000000   -2.00000000000
     -2.11388582115  -23.25274403269    0.00000000000   -2.00000000000
    -23.25274403269   -2.11388582115    0.00000000000   -2.00000000000
    -23.25274403269    0.00000000000   -2.11388582115   -2.00000000000
      0.00000000000   23.25274403269   -2.11388582115   -2.00000000000
     23.25274403269    0.00000000000   -2.11388582115   -2.00000000000
      0.00000000000  -23.25274403269   -2.11388582115   -2.00000000000
    -23.25274403269    2.11388582115   -2.11388582115    2.00000000000
     -2.11388582115   23.25274403269   -2.11388582115    2.00000000000
      2.11388582115   23.25274403269   -2.11388582115    2.00000000000
     23.25274403269    2.11388582115   -2.11388582115    2.00000000000
     23.25274403269   -2.11388582115   -2.11388582115    2.00000000000
      2.11388582115  -23.25274403269   -2.11388582115    2.00000000000
     -2.11388582115  -23.25274403269   -2.11388582115    2.00000000000
    -23.25274403269   -2.11388582115   -2.11388582115    2.00000000000
    -23.25274403269    4.22777164231    0.00000000000    2.00000000000
    -21.13885821154   10.56942910577    0.00000000000    2.00000000000
    -10.56942910577   21.13885821154    0.00000000000    2.00000000000
     -4.22777164231   23.25274403269    0.00000000000    2.00000000000
      4.22777164231   23.25274403269    0.00000000000    2.00000000000
     10.56942910577   21.13885821154    0.00000000000    2.00000000000
     21.13885821154   10.56942910577    0.00000000000    2.00000000000
     23.25274403269    4.22777164231    0.00000000000    2.00000000000
     23.25274403269   -4.22777164231    0.00000000000    2.00000000000
     21.13885821154  -10.56942910577    0.00000000000    2.00000000000
     10.56942910577  -21.13885821154    0.00000000000    2.00000000000
      4.22777164231  -23.25274403269    0.00000000000    2.00000000000
     -4.22777164231  -23.25274403269    0.00000000000    2.00000000000
    -10.56942910577  -21.13885821154    0.00000000000    2.00000000000
    -21.13885821154  -10.56942910577    0.00000000000    2.00000000000
    -23.25274403269   -4.22777164231    0.00000000000    2.00000000000
    -23.25274403269    4.22777164231   -2.11388582115   -2.00000000000
    -21.13885821154   10.56942910577   -2.11388582115   -2.00000000000
    -10.56942910577   21.13885821154   -2.11388582115   -2.00000000000
     -4.22777164231   23.25274403269   -2.11388582115   -2.00000000000
      4.22777164231   23.25274403269   -2.11388582115   -2.00000000000
     10.56942910577   21.13885821154   -2.11388582115   -2.00000000000
     21.13885821154   10.56942910577   -2.11388582115   -2.00000000000
     23.25274403269    4.22777164231   -2.11388582115   -2.00000000000
     23.25274403269   -4.22777164231   -2.11388582115   -2.00000000000
     21.13885821154  -10.56942910577   -2.11388582115   -2.00000000000
     10.56942910577  -21.13885821154   -2.11388582115   -2.00000000000
      4.22777164231  -23.25274403269   -2.11388582115   -2.00000000000
     -4.22777164231  -23.25274403269   -2.11388582115   -2.00000000000
    -10.56942910577  -21.13885821154   -2.11388582115   -2.00000000000
    -21.13885821154  -10.56942910577   -2.11388582115   -2.00000000000
    -23.25274403269   -4.22777164231   -2.11388582115   -2.00000000000
    -16.91108656923   16.91108656923    0.00000000000   -2.00000000000
     16.91108656923   16.91108656923    0.00000000000   -2.00000000000
     16.91108656923  -16.91108656923    0.00000000000   -2.00000000000
    -16.91108656923  -16.91108656923    0.00000000000   -2.00000000000
    -16.91108656923   16.91108656923   -2.11388582115    2.00000000000
     16.91108656923   16.91108656923   -2.11388582115    2.00000000000
     16.91108656923  -16.91108656923   -2.11388582115    2.00000000000
    -16.91108656923  -16.91108656923   -2.11388582115    2.00000000000
    -23.25274403269    6.34165746346    0.00000000000   -2.00000000000
    -19.02497239038   14.79720074808    0.00000000000   -2.00000000000
    -14.79720074808   19.02497239038    0.00000000000   -2.00000000000
     -6.34165746346   23.25274403269    0.00000000000   -2.00000000000
      6.34165746346   23.25274403269    0.00000000000   -2.00000000000
     14.79720074808   19.02497239038    0.00000000000   -2.00000000000
     19.02497239038   14.79720074808    0.00000000000   -2.00000000000
     23.25274403269    6.34165746346    0.00000000000   -2.00000000000
     23.25274403269   -6.34165746346    0.00000000000   -2.00000000000
     19.02497239038  -14.79720074808    0.00000000000   -2.00000000000
     14.79720074808  -19.02497239038    0.00000000000   -2.00000000000
      6.34165746346  -23.25274403269    0.00000000000   -2.00000000000
     -6.34165746346  -23.25274403269    0.00000000000   -2.00000000000
    -14.79720074808  -19.02497239038    0.00000000000   -2.00000000000
    -19.02497239038  -14.79720074808    0.00000000000   -2.00000000000
    -23.25274403269   -6.34165746346    0.00000000000   -2.00000000000
    -23.25274403269    6.34165746346   -2.11388582115    2.00000000000
    -19.02497239038   14.79720074808   -2.11388582115    2.00000000000
    -14.79720074808   19.02497239038   -2.11388582115    2.00000000000
     -6.34165746346   23.25274403269   -2.11388582115    2.00000000000
      6.34165746346   23.25274403269   -2.11388582115    2.00000000000
     14.79720074808   19.02497239038   -2.11388582115    2.00000000000
     19.02497239038   14.79720074808   -2.11388582115    2.00000000000
     23.25274403269    6.34165746346   -2.11388582115    2.00000000000
     23.25274403269   -6.34165746346   -2.11388582115    2.00000000000
     19.02497239038  -14.79720074808   -2.11388582115    2.00000000000
     14.79720074808  -19.02497239038   -2.11388582115    2.00000000000
      6.34165746346  -23.25274403269   -2.11388582115    2.00000000000
     -6.34165746346  -23.25274403269   -2.11388582115    2.00000000000
    -14.79720074808  -19.02497239038   -2.11388582115    2.00000000000
    -19.02497239038  -14.79720074808   -2.11388582115    2.00000000000
    -23.25274403269   -6.34165746346   -2.11388582115    2.00000000000
    -21.13885821154   12.68331492692    0.00000000000   -2.00000000000
    -12.68331492692   21.13885821154    0.00000000000   -2.00000000000
     12.68331492692   21.13885821154    0.00000000000   -2.00000000000
     21.13885821154   12.68331492692    0.00000000000   -2.00000000000
     21.13885821154  -12.68331492692    0.00000000000   -2.00000000000
     12.68331492692  -21.13885821154    0.00000000000   -2.00000000000
    -12.68331492692  -21.13885821154    0.00000000000   -2.00000000000
    -21.13885821154  -12.68331492692    0.00000000000   -2.00000000000
    -23.25274403269    8.45554328461    0.00000000000    2.00000000000
     -8.45554328461   23.25274403269    0.00000000000    2.00000000000
      8.45554328461   23.25274403269    0.00000000000    2.00000000000
     23.25274403269    8.45554328461    0.00000000000    2.00000000000
     23.25274403269   -8.45554328461    0.00000000000    2.00000000000
      8.45554328461  -23.25274403269    0.00000000000    2.00000000000
     -8.45554328461  -23.25274403269    0.00000000000    2.00000000000
    -23.25274403269   -8.45554328461    0.00000000000    2.00000000000
    -21.13885821154   12.68331492692   -2.11388582115    2.00000000000
    -12.68331492692   21.13885821154   -2.11388582115    2.00000000000
     12.68331492692   21.13885821154   -2.11388582115    2.00000000000
     21.13885821154   12.68331492692   -2.11388582115    2.00000000000
     21.13885821154  -12.68331492692   -2.11388582115    2.00000000000
     12.68331492692  -21.13885821154   -2.11388582115    2.00000000000
    -12.68331492692  -21.13885821154   -2.11388582115    2.00000000000
    -21.13885821154  -12.68331492692   -2.11388582115    2.00000000000
    -23.25274403269    8.45554328461   -2.11388582115   -2.00000000000
     -8.45554328461   23.25274403269   -2.11388582115   -2.00000000000
      8.45554328461   23.25274403269   -2.11388582115   -2.00000000000
     23.25274403269    8.45554328461   -2.11388582115   -2.00000000000
     23.25274403269   -8.45554328461   -2.11388582115   -2.00000000000
      8.45554328461  -23.25274403269   -2.11388582115   -2.00000000000
     -8.45554328461  -23.25274403269   -2.11388582115   -2.00000000000
    -23.25274403269   -8.45554328461   -2.11388582115   -2.00000000000
    -25.36662985384    0.00000000000    0.00000000000   -2.00000000000
      0.00000000000   25.36662985384    0.00000000000   -2.00000000000
     25.36662985384    0.00000000000    0.00000000000   -2.00000000000
      0.00000000000  -25.36662985384    0.00000000000   -2.00000000000
    -25.36662985384    2.11388582115    0.00000000000    2.00000000000
    -19.02497239038   16.91108656923    0.00000000000    2.00000000000
    -16.91108656923   19.02497239038    0.00000000000    2.00000000000
     -2.11388582115   25.36662985384    0.00000000000    2.00000000000
      2.11388582115   25.36662985384    0.00000000000    2.00000000000
     16.91108656923   19.02497239038    0.00000000000    2.00000000000
     19.02497239038   16.91108656923    0.00000000000    2.00000000000
     25.36662985384    2.11388582115    0.00000000000    2.00000000000
     25.36662985384   -2.11388582115    0.00000000000    2.00000000000
     19.02497239038  -16.91108656923    0.00000000000    2.00000000000
     16.91108656923  -19.02497239038    0.00000000000    2.00000000000
      2.11388582115  -25.36662985384    0.00000000000    2.00000000000
     -2.11388582115  -25.36662985384    0.00000000000    2.00000000000
    -16.91108656923  -19.02497239038    0.00000000000    2.00000000000
    -19.02497239038  -16.91108656923    0.00000000000    2.00000000000
    -25.36662985384   -2.11388582115    0.00000000000    2.00000000000
    -25.36662985384    0.00000000000   -2.11388582115    2.00000000000
      0.00000000000   25.36662985384   -2.11388582115    2.00000000000
     25.36662985384    0.00000000000   -2.11388582115    2.00000000000
      0.00000000000  -25.36662985384   -2.11388582115    2.00000000000
    -23.25274403269   10.56942910577    0.00000000000   -2.00000000000
    -10.56942910577   23.25274403269    0.00000000000   -2.00000000000
     10.56942910577   23.25274403269    0.00000000000   -2.00000000000
     23.25274403269   10.56942910577    0.00000000000   -2.00000000000
     23.25274403269  -10.56942910577    0.00000000000   -2.00000000000
     10.56942910577  -23.25274403269    0.00000000000   -2.00000000000
    -10.56942910577  -23.25274403269    0.00000000000   -2.00000000000
    -23.25274403269  -10.56942910577    0.00000000000   -2.00000000000
    -25.36662985384    2.11388582115   -2.11388582115   -2.00000000000
    -19.02497239038   16.91108656923   -2.11388582115   -2.00000000000
    -16.91108656923   19.02497239038   -2.11388582115   -2.00000000000
     -2.11388582115   25.36662985384   -2.11388582115   -2.00000000000
      2.11388582115   25.36662985384   -2.11388582115   -2.00000000000
     16.91108656923   19.02497239038   -2.11388582115   -2.00000000000
     19.02497239038   16.91108656923   -2.11388582115   -2.00000000000
     25.36662985384    2.11388582115   -2.11388582115   -2.00000000000
     25.36662985384   -2.11388582115   -2.11388582115   -2.00000000000
     19.02497239038  -16.91108656923   -2.11388582115   -2.00000000000
     16.91108656923  -19.02497239038   -2.11388582115   -2.00000000000
      2.11388582115  -25.36662985384   -2.11388582115   -2.00000000000
     -2.11388582115  -25.36662985384   -2.11388582115   -2.00000000000
    -16.91108656923  -19.02497239038   -2.11388582115   -2.00000000000
    -19.02497239038  -16.91108656923   -2.11388582115   -2.00000000000
    -25.36662985384   -2.11388582115   -2.11388582115   -2.00000000000
    -23.25274403269   10.56942910577   -2.11388582115    2.00000000000
    -10.56942910577   23.25274403269   -2.11388582115    2.00000000000
     10.56942910577   23.25274403269   -2.11388582115    2.00000000000
     23.25274403269   10.56942910577   -2.11388582115    2.00000000000
     23.25274403269  -10.56942910577   -2.11388582115    2.00000000000
     10.56942910577  -23.25274403269   -2.11388582115    2.00000000000
    -10.56942910577  -23.25274403269   -2.11388582115    2.00000000000
    -23.25274403269  -10.56942910577   -2.11388582115    2.00000000000
    -25.36662985384    4.22777164231    0.00000000000   -2.00000000000
     -4.22777164231   25.36662985384    0.00000000000   -2.00000000000
      4.22777164231   25.36662985384    0.00000000000   -2.00000000000
     25.36662985384    4.22777164231    0.00000000000   -2.00000000000
     25.36662985384   -4.22777164231    0.00000000000   -2.00000000000
      4.22777164231  -25.36662985384    0.00000000000   -2.00000000000
     -4.22777164231  -25.36662985384    0.00000000000   -2.00000000000
    -25.36662985384   -4.22777164231    0.00000000000   -2.00000000000
    -21.13885821154   14.79720074808    0.00000000000    2.00000000000
    -14.79720074808   21.13885821154    0.00000000000    2.00000000000
     14.79720074808   21.13885821154    0.00000000000    2.00000000000
     21.13885821154   14.79720074808    0.00000000000    2.00000000000
     21.13885821154  -14.79720074808    0.00000000000    2.00000000000
     14.79720074808  -21.13885821154    0.00000000000    2.00000000000
    -14.79720074808  -21.13885821154    0.00000000000    2.00000000000
    -21.13885821154  -14.79720074808    0.00000000000    2.00000000000
    -25.36662985384    4.22777164231   -2.11388582115    2.00000000000
     -4.22777164231   25.36662985384   -2.11388582115    2.00000000000
      4.22777164231   25.36662985384   -2.11388582115    2.00000000000
     25.36662985384    4.22777164231   -2.11388582115    2.00000000000
     25.36662985384   -4.22777164231   -2.11388582115    2.00000000000
      4.22777164231  -25.36662985384   -2.11388582115    2.00000000000
     -4.22777164231  -25.36662985384   -2.11388582115    2.00000000000
    -25.36662985384   -4.22777164231   -2.11388582115    2.00000000000
    -21.13885821154   14.79720074808   -2.11388582115   -2.00000000000
    -14.79720074808   21.13885821154   -2.11388582115   -2.00000000000
     14.79720074808   21.13885821154   -2.11388582115   -2.00000000000
     21.13885821154   14.79720074808   -2.11388582115   -2.00000000000
     21.13885821154  -14.79720074808   -2.11388582115   -2.00000000000
     14.79720074808  -21.13885821154   -2.11388582115   -2.00000000000
    -14.79720074808  -21.13885821154   -2.11388582115   -2.00000000000
    -21.13885821154  -14.79720074808   -2.11388582115   -2.00000000000
    -25.36662985384    6.34165746346    0.00000000000    2.00000000000
     -6.34165746346   25.36662985384    0.00000000000    2.00000000000
      6.34165746346   25.36662985384    0.00000000000    2.00000000000
     25.36662985384    6.34165746346    0.00000000000    2.00000000000
     25.36662985384   -6.34165746346    0.00000000000    2.00000000000
      6.34165746346  -25.36662985384    0.00000000000    2.00000000000
[...]
 Number of atoms for local DF:   55
 Number of fitting functions:  8608  (69.93%)
 Warning: drop high-lying PAOs                    21
 Number of occupied orbitals:    74
 Number of virtual  orbitals:  2907
 Number of Cholesky vectors:      9
 MP2 energy in ED [au]:          -0.075369257794
 CPU time [min]: 62193.546                   Wall time [min]:  1939.983
 
 MO:   344
 Number of atoms in domain:      75
 Number of atomic orbitals:    4131
 Number of atoms for local DF:   44
 Number of fitting functions:  6438  (57.03%)
 Warning: drop high-lying PAOs                    16
 Number of occupied orbitals:    40
 Number of virtual  orbitals:  2250
 Number of Cholesky vectors:      8
 MP2 energy in ED [au]:          -0.072607801009
 CPU time [min]: 62323.955                   Wall time [min]:  1944.091
 
 MO:   345
 Number of atoms in domain:      74
 Number of atomic orbitals:    4072
 Number of atoms for local DF:   40
 Number of fitting functions:  5944  (53.49%)
 Warning: drop high-lying PAOs                    15
 Number of occupied orbitals:    40
 Number of virtual  orbitals:  2064
 Number of Cholesky vectors:      8
 MP2 energy in ED [au]:          -0.071386733225
 CPU time [min]: 62438.540                   Wall time [min]:  1947.716
 
 MO:   346
 Number of atoms in domain:      80
 Number of atomic orbitals:    4413
 Number of atoms for local DF:   51
 Number of fitting functions:  7974  (65.91%)
 Warning: drop high-lying PAOs                    18
 Number of occupied orbitals:    73
 Number of virtual  orbitals:  2711
 Number of Cholesky vectors:      9
 MP2 energy in ED [au]:          -0.075363369402
 CPU time [min]: 62730.206                   Wall time [min]:  1957.249
 
 MO:   347
 Number of atoms in domain:      90
 Number of atomic orbitals:    4873
 Number of atoms for local DF:   90
 Number of fitting functions: 13158 (100.00%)
 Warning: drop high-lying PAOs                    33
 Number of occupied orbitals:    79
 Number of virtual  orbitals:  4369
 Number of Cholesky vectors:      9
 MP2 energy in ED [au]:          -0.075631321940
 CPU time [min]: 63442.647                   Wall time [min]:  1979.940
 
 MO:   348
 Number of atoms in domain:      73
 Number of atomic orbitals:    4026
 Number of atoms for local DF:   38
 Number of fitting functions:  5335  (48.47%)
 Warning: drop high-lying PAOs                    14
 Number of occupied orbitals:    40
 Number of virtual  orbitals:  1895
 Number of Cholesky vectors:      8
 MP2 energy in ED [au]:          -0.071384918273
 CPU time [min]: 63541.032                   Wall time [min]:  1983.042
 
 MO:   349
 Number of atoms in domain:      84
 Number of atomic orbitals:    4597
 Number of atoms for local DF:   60
 Number of fitting functions:  9208  (73.53%)
 Warning: drop high-lying PAOs                    22
 Number of occupied orbitals:    75
 Number of virtual  orbitals:  3130
 Number of Cholesky vectors:      9
 MP2 energy in ED [au]:          -0.075406781980
 CPU time [min]: 63920.195                   Wall time [min]:  1995.445
 
 MO:   350
 Number of atoms in domain:      74
 Number of atomic orbitals:    4072
 Number of atoms for local DF:   42
 Number of fitting functions:  6156  (55.40%)
 Warning: drop high-lying PAOs                    15
 Number of occupied orbitals:    40
 Number of virtual  orbitals:  2154
 Number of Cholesky vectors:      8
 MP2 energy in ED [au]:          -0.072606220528
 CPU time [min]: 64041.205                   Wall time [min]:  1999.262
 
 MO:   351
 Number of atoms in domain:      75
 Number of atomic orbitals:    4131
 Number of atoms for local DF:   45
 Number of fitting functions:  6544  (57.97%)
 Warning: drop high-lying PAOs                    16
 Number of occupied orbitals:    40
 Number of virtual  orbitals:  2294
 Number of Cholesky vectors:      8
 MP2 energy in ED [au]:          -0.072607110788
 CPU time [min]: 64173.260                   Wall time [min]:  2003.413
 
 MO:   352
 Number of atoms in domain:      84
 Number of atomic orbitals:    4597
 Number of atoms for local DF:   59
 Number of fitting functions:  8962  (71.57%)
 Warning: drop high-lying PAOs                    20
 Number of occupied orbitals:    65
 Number of virtual  orbitals:  3076
 Number of Cholesky vectors:      9
 MP2 energy in ED [au]:          -0.074959393652
 CPU time [min]: 64493.257                   Wall time [min]:  2013.732
 
 MO:   353
 Number of atoms in domain:      88
 Number of atomic orbitals:    4781
 Number of atoms for local DF:   75
 Number of fitting functions: 11148  (86.11%)
 Warning: drop high-lying PAOs                    27
 Number of occupied orbitals:    96
 Number of virtual  orbitals:  3792
 Number of Cholesky vectors:      9
 MP2 energy in ED [au]:          -0.076170974736
 CPU time [min]: 65114.226                   Wall time [min]:  2034.252
 
 MO:   354
 Number of atoms in domain:      79
 Number of atomic orbitals:    4341
 Number of atoms for local DF:   49
 Number of fitting functions:  7038  (59.38%)
 Warning: drop high-lying PAOs                    17
 Number of occupied orbitals:    44
 Number of virtual  orbitals:  2482
 Number of Cholesky vectors:      8
 MP2 energy in ED [au]:          -0.071639040398
 CPU time [min]: 65276.415                   Wall time [min]:  2039.307
 
 MO:   355
 Number of atoms in domain:      74
 Number of atomic orbitals:    4072
 Number of atoms for local DF:   41
 Number of fitting functions:  6050  (54.45%)
 Warning: drop high-lying PAOs                    15
 Number of occupied orbitals:    40
 Number of virtual  orbitals:  2109
 Number of Cholesky vectors:      8
 MP2 energy in ED [au]:          -0.071386755994
 CPU time [min]: 65391.217                   Wall time [min]:  2042.943
 
 MO:   356
 Number of atoms in domain:      80
 Number of atomic orbitals:    4387
 Number of atoms for local DF:   45
 Number of fitting functions:  6357  (53.16%)
 Warning: drop high-lying PAOs                    18
 Number of occupied orbitals:    44
 Number of virtual  orbitals:  2240
 Number of Cholesky vectors:      8
 MP2 energy in ED [au]:          -0.073447163485
 CPU time [min]: 65528.837                   Wall time [min]:  2047.368
 
 MO:   357
 Number of atoms in domain:      80
 Number of atomic orbitals:    4400
 Number of atoms for local DF:   48
 Number of fitting functions:  6932  (57.63%)
 Warning: drop high-lying PAOs                    17
 Number of occupied orbitals:    52
 Number of virtual  orbitals:  2436
 Number of Cholesky vectors:      8
 MP2 energy in ED [au]:          -0.073653353770
 CPU time [min]: 65707.482                   Wall time [min]:  2052.948
 
 MO:   358
 Number of atoms in domain:      88
 Number of atomic orbitals:    4781
 Number of atoms for local DF:   75
 Number of fitting functions: 11148  (86.11%)
 Warning: drop high-lying PAOs                    27
 Number of occupied orbitals:    89
 Number of virtual  orbitals:  3793
 Number of Cholesky vectors:      9
 MP2 energy in ED [au]:          -0.076178464461
 CPU time [min]: 66302.842                   Wall time [min]:  2072.320
 
 MO:   359
 Number of atoms in domain:      80
 Number of atomic orbitals:    4400
 Number of atoms for local DF:   48
 Number of fitting functions:  6932  (57.63%)
 Warning: drop high-lying PAOs                    17
 Number of occupied orbitals:    52
 Number of virtual  orbitals:  2436
 Number of Cholesky vectors:      8
 MP2 energy in ED [au]:          -0.073652189630
 CPU time [min]: 66481.850                   Wall time [min]:  2077.908
 
 MO:   360
 Number of atoms in domain:      82
 Number of atomic orbitals:    4505
 Number of atoms for local DF:   56
 Number of fitting functions:  8784  (71.36%)
 Warning: drop high-lying PAOs                    22
 Number of occupied orbitals:    75
 Number of virtual  orbitals:  2950
 Number of Cholesky vectors:      9
 MP2 energy in ED [au]:          -0.075372349940
 CPU time [min]: 66827.377                   Wall time [min]:  2089.163
 
 MO:   361
 Number of atoms in domain:      75
 Number of atomic orbitals:    4131
 Number of atoms for local DF:   41
 Number of fitting functions:  5910  (52.36%)
 Warning: drop high-lying PAOs                    13
 Number of occupied orbitals:    28
 Number of virtual  orbitals:  2093
 Number of Cholesky vectors:      8
 MP2 energy in ED [au]:          -0.071586765628
 CPU time [min]: 66919.295                   Wall time [min]:  2091.913
 
 MO:   362
 Number of atoms in domain:      75
 Number of atomic orbitals:    4131
 Number of atoms for local DF:   45
 Number of fitting functions:  6544  (57.97%)
 Warning: drop high-lying PAOs                    16
 Number of occupied orbitals:    40
 Number of virtual  orbitals:  2294
 Number of Cholesky vectors:      8
 MP2 energy in ED [au]:          -0.072625523465
 CPU time [min]: 67051.402                   Wall time [min]:  2096.063
 
 MO:   363
 Number of atoms in domain:      75
 Number of atomic orbitals:    4131
 Number of atoms for local DF:   44
 Number of fitting functions:  6438  (57.03%)
 Warning: drop high-lying PAOs                    16
 Number of occupied orbitals:    40
 Number of virtual  orbitals:  2250
 Number of Cholesky vectors:      8
 MP2 energy in ED [au]:          -0.072625362408
 CPU time [min]: 67181.738                   Wall time [min]:  2100.170
 
 MO:   364
 Number of atoms in domain:      80
 Number of atomic orbitals:    4400
 Number of atoms for local DF:   48
 Number of fitting functions:  6932  (57.63%)
 Warning: drop high-lying PAOs                    17
 Number of occupied orbitals:    53
 Number of virtual  orbitals:  2436
 Number of Cholesky vectors:      8
 MP2 energy in ED [au]:          -0.073703136812
 CPU time [min]: 67365.401                   Wall time [min]:  2105.902
 
 MO:   365
 Number of atoms in domain:      80
 Number of atomic orbitals:    4387
 Number of atoms for local DF:   51
 Number of fitting functions:  7320  (61.21%)
 Warning: drop high-lying PAOs                    18
 Number of occupied orbitals:    44
 Number of virtual  orbitals:  2577
 Number of Cholesky vectors:      8
 MP2 energy in ED [au]:          -0.071639331960
 CPU time [min]: 67534.891                   Wall time [min]:  2111.104
 
 MO:   366
 Number of atoms in domain:      73
 Number of atomic orbitals:    4026
 Number of atoms for local DF:   39
 Number of fitting functions:  5441  (49.44%)
 Warning: drop high-lying PAOs                    14
 Number of occupied orbitals:    40
 Number of virtual  orbitals:  1940
 Number of Cholesky vectors:      8
 MP2 energy in ED [au]:          -0.072625374708
 CPU time [min]: 67637.158                   Wall time [min]:  2114.319
 
 MO:   367
 Number of atoms in domain:      80
 Number of atomic orbitals:    4387
 Number of atoms for local DF:   50
 Number of fitting functions:  6887  (57.59%)
 Warning: drop high-lying PAOs                    18
 Number of occupied orbitals:    44
 Number of virtual  orbitals:  2461
 Number of Cholesky vectors:      8
 MP2 energy in ED [au]:          -0.071639034488
 CPU time [min]: 67792.894                   Wall time [min]:  2119.198
 
 MO:   368
 Number of atoms in domain:      74
 Number of atomic orbitals:    4072
 Number of atoms for local DF:   41
 Number of fitting functions:  5793  (52.13%)
 Warning: drop high-lying PAOs                    16
 Number of occupied orbitals:    40
 Number of virtual  orbitals:  2045
 Number of Cholesky vectors:      8
 MP2 energy in ED [au]:          -0.071386449193
 CPU time [min]: 67902.962                   Wall time [min]:  2122.669
 
 MO:   369
 Number of atoms in domain:      80
 Number of atomic orbitals:    4387
 Number of atoms for local DF:   48
 Number of fitting functions:  7002  (58.55%)
 Warning: drop high-lying PAOs                    18
 Number of occupied orbitals:    44
 Number of virtual  orbitals:  2442
 Number of Cholesky vectors:      8
 MP2 energy in ED [au]:          -0.071572181243
 CPU time [min]: 68061.346                   Wall time [min]:  2127.649
 
 MO:   370
 Number of atoms in domain:      88
 Number of atomic orbitals:    4781
 Number of atoms for local DF:   75
 Number of fitting functions: 11148  (86.11%)
 Warning: drop high-lying PAOs                    27
 Number of occupied orbitals:    97
 Number of virtual  orbitals:  3792
 Number of Cholesky vectors:      9
 MP2 energy in ED [au]:          -0.076167817947
 CPU time [min]: 68693.456                   Wall time [min]:  2148.544
 
 MO:   371
 Number of atoms in domain:      74
 Number of atomic orbitals:    4072
 Number of atoms for local DF:   41
 Number of fitting functions:  6050  (54.45%)
 Warning: drop high-lying PAOs                    15
 Number of occupied orbitals:    40
 Number of virtual  orbitals:  2109
 Number of Cholesky vectors:      8
 MP2 energy in ED [au]:          -0.072624526933
 CPU time [min]: 68808.155                   Wall time [min]:  2152.176
 
 MO:   372
 Number of atoms in domain:      73
 Number of atomic orbitals:    4026
 Number of atoms for local DF:   39
 Number of fitting functions:  5441  (49.44%)
 Warning: drop high-lying PAOs                    14
 Number of occupied orbitals:    40
 Number of virtual  orbitals:  1940
 Number of Cholesky vectors:      8
 MP2 energy in ED [au]:          -0.072625777983
 CPU time [min]: 68909.233                   Wall time [min]:  2155.358
 
 MO:   373
 Number of atoms in domain:      84
 Number of atomic orbitals:    4597
 Number of atoms for local DF:   60
 Number of fitting functions:  9208  (73.53%)
 Warning: drop high-lying PAOs                    22
 Number of occupied orbitals:    75
 Number of virtual  orbitals:  3130
 Number of Cholesky vectors:      9
 MP2 energy in ED [au]:          -0.075408549777
 CPU time [min]: 69290.981                   Wall time [min]:  2167.833
 
 MO:   374
 Number of atoms in domain:      80
 Number of atomic orbitals:    4400
 Number of atoms for local DF:   48
 Number of fitting functions:  6932  (57.63%)
 Warning: drop high-lying PAOs                    17
 Number of occupied orbitals:    52
 Number of virtual  orbitals:  2436
 Number of Cholesky vectors:      8
 MP2 energy in ED [au]:          -0.073651846494
 CPU time [min]: 69473.277                   Wall time [min]:  2173.515
 
 MO:   375
 Number of atoms in domain:      83
 Number of atomic orbitals:    4551
 Number of atoms for local DF:   57
 Number of fitting functions:  8820  (71.04%)
 Warning: drop high-lying PAOs                    21
 Number of occupied orbitals:    74
 Number of virtual  orbitals:  2991
 Number of Cholesky vectors:      9
 MP2 energy in ED [au]:          -0.075233987555
 CPU time [min]: 69828.115                   Wall time [min]:  2185.015
 
 MO:   376
 Number of atoms in domain:      75
 Number of atomic orbitals:    4131
 Number of atoms for local DF:   40
 Number of fitting functions:  5734  (50.80%)
 Warning: drop high-lying PAOs                    12
 Number of occupied orbitals:    28
 Number of virtual  orbitals:  2040
 Number of Cholesky vectors:      8
 MP2 energy in ED [au]:          -0.070222796628
 CPU time [min]: 69917.931                   Wall time [min]:  2187.698
 
 MO:   377
 Number of atoms in domain:      84
 Number of atomic orbitals:    4597
 Number of atoms for local DF:   59
 Number of fitting functions:  9032  (72.13%)
 Warning: drop high-lying PAOs                    21
 Number of occupied orbitals:    67
 Number of virtual  orbitals:  3072
 Number of Cholesky vectors:      9
 MP2 energy in ED [au]:          -0.074659360133
 CPU time [min]: 70260.151                   Wall time [min]:  2198.695
 
 MO:   378
 Number of atoms in domain:      84
 Number of atomic orbitals:    4597
 Number of atoms for local DF:   60
 Number of fitting functions:  9208  (73.53%)
 Warning: drop high-lying PAOs                    22
 Number of occupied orbitals:    75
 Number of virtual  orbitals:  3130
 Number of Cholesky vectors:      9
 MP2 energy in ED [au]:          -0.075404182165
 CPU time [min]: 70639.744                   Wall time [min]:  2211.110
 
 MO:   379
 Number of atoms in domain:      84
 Number of atomic orbitals:    4597
 Number of atoms for local DF:   57
 Number of fitting functions:  8680  (69.32%)
 Warning: drop high-lying PAOs                    19
 Number of occupied orbitals:    57
 Number of virtual  orbitals:  2976
 Number of Cholesky vectors:      9
 MP2 energy in ED [au]:          -0.073895627253
 CPU time [min]: 70919.432                   Wall time [min]:  2219.945
 
 MO:   380
 Number of atoms in domain:      86
 Number of atomic orbitals:    4689
 Number of atoms for local DF:   67
 Number of fitting functions: 10160  (79.79%)
 Warning: drop high-lying PAOs                    25
 Number of occupied orbitals:    94
 Number of virtual  orbitals:  3444
 Number of Cholesky vectors:      9
 MP2 energy in ED [au]:          -0.076269404437
 CPU time [min]: 71468.811                   Wall time [min]:  2237.878
 
 MO:   381
 Number of atoms in domain:      80
 Number of atomic orbitals:    4413
 Number of atoms for local DF:   49
 Number of fitting functions:  7762  (64.16%)
 Warning: drop high-lying PAOs                    18
 Number of occupied orbitals:    73
 Number of virtual  orbitals:  2623
 Number of Cholesky vectors:      9
 MP2 energy in ED [au]:          -0.075149667298
 CPU time [min]: 71747.474                   Wall time [min]:  2246.989
 
 MO:   382
 Number of atoms in domain:      85
 Number of atomic orbitals:    4643
 Number of atoms for local DF:   62
 Number of fitting functions:  9490  (75.15%)
 Warning: drop high-lying PAOs                    23
 Number of occupied orbitals:    90
 Number of virtual  orbitals:  3216
 Number of Cholesky vectors:      9
 MP2 energy in ED [au]:          -0.076140710681
 CPU time [min]: 72226.316                   Wall time [min]:  2262.614
 
 **********************************************************************
 Dimensions of the extended domains:    Minimum / Average / Maximum
 
 Number of atoms in domain:                  60      76.5        90
 Number of atomic orbitals:                3467    4223.2      4873
 Number of fitting functions:              2366    6428.5     13158
 Number of occupied localized MOs:           20      43.4       148
 Number of PAOs:                            650    2207.3      4369
 
 **********************************************************************
 Final local correlation results
 
 Sum of pair energies [au]:                    -0.038814719808    (0.147%)
 Sum of energy corrections [au]:                0.000000000000    (0.000%)
 Sum of LMO contributions [au]:               -26.443028120202
 
 Reference energy [au]:                    -18457.163683778999
 DF-MP2 singles contribution [au]:              0.000000000000
 DF-MP2 correlation energy [au]:              -26.481842840010
 DF-MP2 energy [au]:                       -18483.645526619010
 
 **********************************************************************
  Time of manipulations in the EDs:      max CPU/Wall [s]  all CPU/Wall [min]
 
 PD construction & multipole pair E  512950.06 14399.82  8549.17   240.00
 Construct MO basis of the ED           477.38    13.31  1243.53    34.72
 (mu,nu|P) evaluation & trf 2 (ai|P)  47382.36  1694.08 49907.60  1632.00
 Evaluate MP2 energy of the ED        26761.82   746.95 11341.58   316.36
 Total of the above for all EDs       74621.57  2454.34 62492.71  1983.08
 
 **********************************************************************
 Maximum memory requirement [MB]:       
 
 PD construction & multipole pair E       1564.1
 AO integral evaluation in the EDs        6428.6
 (mu,nu|P) evaluation & trf 2 (aI|P)     92555.3
 Evaluate MP2 energy in the EDs          93654.6
 
 ************************ 2023-01-13 01:13:54 *************************
                      Normal termination of mrcc.
 **********************************************************************
