 vasp.6.4.1 05Apr23 (build May 06 2023 19:47:20) complex                        
  
 executed on             LinuxIFC date 2023.05.19  18:21:35
 running  256 mpi-ranks, with    1 threads/rank, on   16 nodes
 distrk:  each k-point on  256 cores,    1 groups
 distr:  one band on NCORE=   4 cores,   64 groups


--------------------------------------------------------------------------------------------------------


 INCAR:
   SYSTEM = MgO-rocksalt
   ISMEAR = 0
   SIGMA = 0.05
   EDIFF = 1E-6
   ALGO = ALL
   ISTART = 0
   IBRION = -1
   NSW = 0
   ISYM = 2
   METAGGA = M06L
   ENCUT = 520
   PREC = Accurate
   LASPH = .TRUE.
   LREAL = Auto
   ISPIN = 1
   NELM = 200
   NELMIN = 8
   NCORE = 4
   KPAR = 1
   LWAVE = .FALSE.
   LCHARG = .FALSE.

 POTCAR:    PAW_PBE Au 04Oct2007                  
 POTCAR:    PAW_PBE Au 04Oct2007                  
   SHA256 =  d0044ae04e2bdce24051b198fc5c053d722a5bc6fe3c3b100514a13fc5d2db88 Au/POTCAR             
   COPYR  = (c) Copyright 04Oct2007 Georg Kresse                                                    
   COPYR  = This file is part of the software VASP. Any use, copying, and all other rights are regul
   COPYR  = If you do not have a valid VASP license, you may not use, copy or distribute this file. 
   VRHFIN =Au: s1d10                                                                                
   LEXCH  = PE                                                                                      
   EATOM  =   926.0867 eV,   68.0654 Ry                                                             
                                                                                                    
   TITEL  = PAW_PBE Au 04Oct2007                                                                    
   LULTRA =        F    use ultrasoft PP ?                                                          
   IUNSCR =        1    unscreen: 0-lin 1-nonlin 2-no                                               
   RPACOR =    2.330    partial core radius                                                         
   POMASS =  196.966; ZVAL   =   11.000    mass and valenz                                          
   RCORE  =    2.500    outmost cutoff radius                                                       
   RWIGS  =    2.840; RWIGS  =    1.503    wigner-seitz radius (au A)                               
   ENMAX  =  229.943; ENMIN  =  172.457 eV                                                          
   ICORE  =        3    local potential                                                             
   LCOR   =        T    correct aug charges                                                         
   LPAW   =        T    paw PP                                                                      
   EAUG   =  356.670                                                                                
   DEXC   =    0.000                                                                                
   RMAX   =    2.562    core radius for proj-oper                                                   
   RAUG   =    1.300    factor for augmentation sphere                                              
   RDEP   =    2.598    radius for radial grids                                                     
   RDEPT  =    2.193    core radius for aug-charge                                                  
                                                                                                    
   Atomic configuration                                                                             
   16 entries                                                                                       
     n  l   j            E        occ.                                                              
     1  0  0.50    -80748.5001   2.0000                                                             
     2  0  0.50    -14244.7466   2.0000                                                             
     2  1  1.50    -12310.9591   6.0000                                                             
     3  0  0.50     -3362.1768   2.0000                                                             
     3  1  1.50     -2801.5463   6.0000                                                             
     3  2  2.50     -2203.8206  10.0000                                                             
     4  0  0.50      -729.8168   2.0000                                                             
     4  1  1.50      -546.0527   6.0000                                                             
     4  2  2.50      -325.7302  10.0000                                                             
     4  3  3.50       -81.1472  14.0000                                                             
     5  0  0.50      -108.3201   2.0000                                                             
     5  1  1.50       -59.7479   6.0000                                                             
     5  2  2.50        -6.8783  10.0000                                                             
     6  0  0.50        -5.7602   1.0000                                                             
     6  1  1.50        -6.8029   0.0000                                                             
     5  3  2.50        -1.3606   0.0000                                                             
   Description                                                                                      
     l       E           TYP  RCUT    TYP  RCUT                                                     
     2     -6.8782861     23  2.500                                                                 
     2     -8.2388687     23  2.500                                                                 
     0     -5.7601759     23  2.500                                                                 
     0     -0.8493231     23  2.500                                                                 
     1     -2.7211652     23  2.500                                                                 
     1     27.2116520     23  2.500                                                                 
     3     -1.3605826     23  2.500                                                                 
  local pseudopotential read in
  partial core-charges read in
  partial kinetic energy density read in
  atomic valenz-charges read in
  non local Contribution for L=           2  read in
    real space projection operators read in
  non local Contribution for L=           2  read in
    real space projection operators read in
  non local Contribution for L=           0  read in
    real space projection operators read in
  non local Contribution for L=           0  read in
    real space projection operators read in
  non local Contribution for L=           1  read in
    real space projection operators read in
  non local Contribution for L=           1  read in
    real space projection operators read in
    PAW grid and wavefunctions read in
 
   number of l-projection  operators is LMAX  =           6
   number of lm-projection operators is LMMAX =          18
 
 Optimization of the real space projectors (new method)

 maximal supplied QI-value         = 15.12
 optimisation between [QCUT,QGAM] = [ 11.64, 23.28] = [ 37.95,151.78] Ry 
 Optimized for a Real-space Cutoff    1.49 Angstroem

   l    n(q)    QCUT    max X(q) W(low)/X(q) W(high)/X(q)  e(spline) 
   2      9    11.641    60.898    0.24E-03    0.10E-03    0.19E-06
   2      9    11.641    58.894    0.25E-03    0.10E-03    0.19E-06
   0     10    11.641   109.617    0.73E-04    0.33E-04    0.11E-06
   0     10    11.641    75.026    0.71E-04    0.32E-04    0.11E-06
   1     10    11.641    16.344    0.27E-04    0.97E-04    0.16E-06
   1     10    11.641    10.160    0.23E-04    0.77E-04    0.13E-06
  PAW_PBE Au 04Oct2007                  :
 energy of atom  1       EATOM= -926.0867
 kinetic energy error for atom=    0.0034 (will be added to EATOM!!)
 
 
 POSCAR: Mg  O
  positions in direct lattice
  No initial velocities read in

 METAGGA = M06L                                        LMAXTAU =  6    LMIXTAU =  F

 exchange correlation table for  LEXCH =        8
   RHO(1)=    0.500       N(1)  =     2000
   RHO(2)=  100.500       N(2)  =     4000
 


--------------------------------------------------------------------------------------------------------


 ion  position               nearest neighbor table
   1  0.525  0.447  0.604-   9 2.67   5 2.69   6 2.74  10 2.79   2 2.83
   2  0.392  0.462  0.611-  10 2.68   6 2.70   7 2.71   3 2.74  11 2.75   1 2.83
   3  0.263  0.476  0.611-   8 2.71   4 2.74   2 2.74  12 2.74  11 2.75   7 2.76
   4  0.142  0.488  0.581-  12 2.68   3 2.74   8 2.75
   5  0.597  0.552  0.599-   1 2.69  13 2.70   6 2.73  14 2.76
   6  0.469  0.564  0.610-   7 2.70   2 2.70   5 2.73   1 2.74  14 2.75  15 2.77
   7  0.342  0.580  0.615-  16 2.70   6 2.70   2 2.71   8 2.75   3 2.76  15 2.77
   8  0.223  0.590  0.580-   3 2.71  16 2.73   7 2.75   4 2.75
   9  0.567  0.328  0.608-  17 2.66   1 2.67  10 2.67  18 2.84
  10  0.441  0.345  0.606-   9 2.67  11 2.67   2 2.68  18 2.72   1 2.79  19 2.83
  11  0.316  0.357  0.606-  10 2.67  19 2.71  12 2.72   2 2.75   3 2.75  20 2.78
  12  0.189  0.372  0.596-  20 2.66   4 2.68  11 2.72   3 2.74
  13  0.664  0.657  0.580-  14 2.66   5 2.70
  14  0.542  0.671  0.600-  15 2.63  13 2.66   6 2.75   5 2.76
  15  0.420  0.685  0.613-  14 2.63  16 2.66   7 2.77   6 2.77
  16  0.306  0.688  0.576-  15 2.66   7 2.70   8 2.73
  17  0.590  0.216  0.572-  18 2.62   9 2.66
  18  0.483  0.224  0.615-  17 2.62  19 2.63  10 2.72   9 2.84
  19  0.361  0.238  0.599-  18 2.63  20 2.71  11 2.71  10 2.83
  20  0.235  0.255  0.591-  12 2.66  19 2.71  11 2.78
 
  LATTYP: Found a simple tetragonal cell.
 ALAT       =    21.1388521970
 C/A-ratio  =     1.4191877459
  
  Lattice vectors:
  
 A1 = (  21.1388521970,   0.0000000000,   0.0000000000)
 A2 = (   0.0000000000,  21.1388521970,   0.0000000000)
 A3 = (   0.0000000000,   0.0000000000,  30.0000000000)


Analysis of symmetry for initial positions (statically):
=====================================================================
 Subroutine PRICEL returns:
 Original cell was already a primitive cell.
 

 Routine SETGRP: Setting up the symmetry group for a 
 simple tetragonal supercell.


 Subroutine GETGRP returns: Found  1 space group operations
 (whereof  1 operations were pure point group operations)
 out of a pool of 16 trial point group operations.


The static configuration has the point symmetry C_1 .


Analysis of symmetry for dynamics (positions and initial velocities):
=====================================================================
 Subroutine PRICEL returns:
 Original cell was already a primitive cell.
 

 Routine SETGRP: Setting up the symmetry group for a 
 simple tetragonal supercell.


 Subroutine GETGRP returns: Found  1 space group operations
 (whereof  1 operations were pure point group operations)
 out of a pool of 16 trial point group operations.


The dynamic configuration has the point symmetry C_1 .


Analysis of constrained symmetry for selective dynamics:
=====================================================================
 Subroutine PRICEL returns:
 Original cell was already a primitive cell.
 

 Routine SETGRP: Setting up the symmetry group for a 
 simple tetragonal supercell.


 Subroutine GETGRP returns: Found  1 space group operations
 (whereof  1 operations were pure point group operations)
 out of a pool of 16 trial point group operations.


The constrained configuration has the point symmetry C_1 .


 Subroutine INISYM returns: Found  1 space group operations
 (whereof  1 operations are pure point group operations),
 and found     1 'primitive' translations


----------------------------------------------------------------------------------------

                                     Primitive cell                                     

  volume of cell :   13405.5322

  direct lattice vectors                    reciprocal lattice vectors
    21.138852197  0.000000000  0.000000000     0.047306258  0.000000000  0.000000000
     0.000000000 21.138852197  0.000000000     0.000000000  0.047306258  0.000000000
     0.000000000  0.000000000 30.000000000     0.000000000  0.000000000  0.033333333

  length of vectors
    21.138852197 21.138852197 30.000000000     0.047306258  0.047306258  0.033333333

  position of ions in fractional coordinates (direct lattice)
     0.524872048  0.447271952  0.603950655
     0.392311328  0.461651392  0.610786995
     0.263393047  0.476088550  0.610793772
     0.141708215  0.487800132  0.580924024
     0.596522468  0.551999768  0.599054984
     0.469070640  0.563857977  0.609945055
     0.342461272  0.579546749  0.615116451
     0.222776038  0.589633786  0.580231670
     0.566642490  0.328382455  0.607784024
     0.441397481  0.344842384  0.605675817
     0.315507669  0.356812161  0.606443419
     0.188710755  0.371925221  0.596214827
     0.663849646  0.657014058  0.580372568
     0.541839810  0.670659680  0.600371638
     0.419711212  0.685260498  0.613218090
     0.305840399  0.688138447  0.575547570
     0.590312949  0.215693563  0.572104398
     0.482912723  0.223906493  0.615291715
     0.361437838  0.237715097  0.598679879
     0.235126425  0.255124631  0.590630608

  ion indices of the primitive-cell ions
   primitive index   ion index
                 1           1
                 2           2
                 3           3
                 4           4
                 5           5
                 6           6
                 7           7
                 8           8
                 9           9
                10          10
                11          11
                12          12
                13          13
                14          14
                15          15
                16          16
                17          17
                18          18
                19          19
                20          20

----------------------------------------------------------------------------------------

 
 
 KPOINTS: KPOINTS created by Atomic Simulation Env

Automatic generation of k-mesh.
 Grid dimensions read from file:
 generate k-points for:    1    1    1

 Generating k-lattice:

  Cartesian coordinates                     Fractional coordinates (reciprocal lattice)
     0.047306258  0.000000000  0.000000000     1.000000000  0.000000000  0.000000000
     0.000000000  0.047306258  0.000000000     0.000000000  1.000000000  0.000000000
     0.000000000  0.000000000  0.033333333     0.000000000  0.000000000  1.000000000

  Length of vectors
     0.047306258  0.047306258  0.033333333

  Shift w.r.t. Gamma in fractional coordinates (k-lattice)
     0.000000000  0.000000000  0.000000000

 
 Subroutine IBZKPT returns following result:
 ===========================================
 
 Found      1 irreducible k-points:
 
 Following reciprocal coordinates:
            Coordinates               Weight
  0.000000  0.000000  0.000000      1.000000
 
 Following cartesian coordinates:
            Coordinates               Weight
  0.000000  0.000000  0.000000      1.000000
 


--------------------------------------------------------------------------------------------------------




 Dimension of arrays:
   k-points           NKPTS =      1   k-points in BZ     NKDIM =      1   number of bands    NBANDS=    192
   number of dos      NEDOS =    301   number of ions     NIONS =     20
   non local maximal  LDIM  =      6   non local SUM 2l+1 LMDIM =     18
   total plane-waves  NPLWV = ******
   max r-space proj   IRMAX =   5966   max aug-charges    IRDMAX=  26356
   dimension x,y,z NGX =   160 NGY =  160 NGZ =  224
   dimension x,y,z NGXF=   320 NGYF=  320 NGZF=  448
   support grid    NGXF=   320 NGYF=  320 NGZF=  448
   ions per type =              20
   NGX,Y,Z   is equivalent  to a cutoff of  12.58, 12.58, 12.41 a.u.
   NGXF,Y,Z  is equivalent  to a cutoff of  25.17, 25.17, 24.83 a.u.

 SYSTEM =  MgO-rocksalt                            
 POSCAR =  Mg  O                                   

 Startparameter for this run:
   NWRITE =      2    write-flag & timer
   PREC   = accura    normal or accurate (medium, high low for compatibility)
   ISTART =      0    job   : 0-new  1-cont  2-samecut
   ICHARG =      2    charge: 1-file 2-atom 10-const
   ISPIN  =      1    spin polarized calculation?
   LNONCOLLINEAR =      F non collinear calculations
   LSORBIT =      F    spin-orbit coupling
   INIWAV =      1    electr: 0-lowe 1-rand  2-diag
   LASPH  =      T    aspherical Exc in radial PAW
 Electronic Relaxation 1
   ENCUT  =  520.0 eV  38.22 Ry    6.18 a.u.  39.30 39.30 55.78*2*pi/ulx,y,z
   ENINI  =  520.0     initial cutoff
   ENAUG  =  356.7 eV  augmentation charge cutoff
   NELM   =    200;   NELMIN=  8; NELMDL= -5     # of ELM steps 
   EDIFF  = 0.1E-05   stopping-criterion for ELM
   LREAL  =      T    real-space projection
   NLSPLINE    = F    spline interpolate recip. space projectors
   LCOMPAT=      F    compatible to vasp.4.4
   GGA_COMPAT  = T    GGA compatible to vasp.4.4-vasp.4.6
   LMAXPAW     = -100 max onsite density
   LMAXMIX     =    2 max onsite mixed and CHGCAR
   VOSKOWN=      0    Vosko Wilk Nusair interpolation
   ROPT   =   -0.00025
 Ionic relaxation
   EDIFFG = 0.1E-04   stopping-criterion for IOM
   NSW    =      0    number of steps for IOM
   NBLOCK =      1;   KBLOCK =      1    inner block; outer block 
   IBRION =     -1    ionic relax: 0-MD 1-quasi-New 2-CG
   NFREE  =      0    steps in history (QN), initial steepest desc. (CG)
   ISIF   =      2    stress and relaxation
   IWAVPR =     10    prediction:  0-non 1-charg 2-wave 3-comb
   ISYM   =      2    0-nonsym 1-usesym 2-fastsym
   LCORR  =      T    Harris-Foulkes like correction to forces

   POTIM  = 0.5000    time-step for ionic-motion
   TEIN   =    0.0    initial temperature
   TEBEG  =    0.0;   TEEND  =   0.0 temperature during run
   SMASS  =  -3.00    Nose mass-parameter (am)
   estimated Nose-frequenzy (Omega)   =  0.10E-29 period in steps = 0.13E+47 mass=  -0.102E-25a.u.
   SCALEE = 1.0000    scale energy and forces
   NPACO  =    256;   APACO  = 10.0  distance and # of slots for P.C.
   PSTRESS=    0.0 pullay stress

  Mass of Ions in am
   POMASS = 196.97
  Ionic Valenz
   ZVAL   =  11.00
  Atomic Wigner-Seitz radii
   RWIGS  =  -1.00
  virtual crystal weights 
   VCA    =   1.00
   NELECT =     220.0000    total number of electrons
   NUPDOWN=      -1.0000    fix difference up-down

 DOS related values:
   EMIN   =  10.00;   EMAX   =-10.00  energy-range for DOS
   EFERMI =   0.00;   METHOD = LEGACY      
   ISMEAR =     0;   SIGMA  =   0.05  broadening in eV -4-tet -1-fermi 0-gaus

 Electronic relaxation 2 (details)
   IALGO  =     58    algorithm
   LDIAG  =      T    sub-space diagonalisation (order eigenvalues)
   LSUBROT=      F    optimize rotation matrix (better conditioning)
   TURBO    =      0    0=normal 1=particle mesh
   IRESTART =      0    0=no restart 2=restart with 2 vectors
   NREBOOT  =      0    no. of reboots
   NMIN     =      0    reboot dimension
   EREF     =   0.00    reference energy to select bands
   IMIX   =      4    mixing-type and parameters
     AMIX     =   0.40;   BMIX     =  1.00
     AMIX_MAG =   1.60;   BMIX_MAG =  1.00
     AMIN     =   0.10
     WC   =   100.;   INIMIX=   1;  MIXPRE=   1;  MAXMIX= -45

 Intra band minimization:
   WEIMIN = 0.0000     energy-eigenvalue tresh-hold
   EBREAK =  0.13E-08  absolut break condition
   DEPER  =   0.30     relativ break condition  

   TIME   =   0.40     timestep for ELM

  volume/ion in A,a.u.               =     670.28      4523.25
  Fermi-wavevector in a.u.,A,eV,Ry     =   0.416027  0.786176  2.354870  0.173078
  Thomas-Fermi vector in A             =   1.375354
 
 Write flags
   LWAVE        =      F    write WAVECAR
   LDOWNSAMPLE  =      F    k-point downsampling of WAVECAR
   LCHARG       =      F    write CHGCAR
   LVTOT        =      F    write LOCPOT, total local potential
   LVHAR        =      F    write LOCPOT, Hartree potential only
   LELF         =      F    write electronic localiz. function (ELF)
   LORBIT       =      0    0 simple, 1 ext, 2 COOP (PROOUT), +10 PAW based schemes


 Dipole corrections
   LMONO  =      F    monopole corrections only (constant potential shift)
   LDIPOL =      F    correct potential (dipole corrections)
   IDIPOL =      0    1-x, 2-y, 3-z, 4-all directions 
   EPSILON=  1.0000000 bulk dielectric constant

 Exchange correlation treatment:
   GGA     =    --    GGA type
   LEXCH   =     8    internal setting for exchange type
   LIBXC   =     F    Libxc                    
   VOSKOWN =     0    Vosko Wilk Nusair interpolation
   LHFCALC =     F    Hartree Fock is set to
   LHFONE  =     F    Hartree Fock one center treatment
   AEXX    =    0.0000 exact exchange contribution

 Linear response parameters
   LEPSILON=     F    determine dielectric tensor
   LRPA    =     F    only Hartree local field effects (RPA)
   LNABLA  =     F    use nabla operator in PAW spheres
   LVEL    =     F    velocity operator in full k-point grid
   CSHIFT  =0.1000    complex shift for real part using Kramers Kronig
   OMEGAMAX=  -1.0    maximum frequency
   DEG_THRESHOLD= 0.2000000E-02 threshold for treating states as degnerate
   RTIME   =   -0.100 relaxation time in fs
  (WPLASMAI=    0.000 imaginary part of plasma frequency in eV, 0.658/RTIME)
   DFIELD  = 0.0000000 0.0000000 0.0000000 field for delta impulse in time
 
  Optional k-point grid parameters
   LKPOINTS_OPT  =     F    use optional k-point grid
   KPOINTS_OPT_MODE=     1    mode for optional k-point grid
 
 Orbital magnetization related:
   ORBITALMAG=     F  switch on orbital magnetization
   LCHIMAG   =     F  perturbation theory with respect to B field
   DQ        =  0.001000  dq finite difference perturbation B field
   LLRAUG    =     F  two centre corrections for induced B field
   LBONE     =     F  B-component reconstruction in AE one-centre
   LVGVCALC  =     T  calculate vGv susceptibility
   LVGVAPPL  =     F  apply vGv susceptibility instead of pGv for G=0

 Random number generation:
   RANDOM_GENERATOR = DEFAULT
   PCG_SEED         = not used


--------------------------------------------------------------------------------------------------------


 Static calculation
 charge density and potential will be updated during run
 non-spin polarized calculation
 Conjugate gradient for all bands (Freysoldt, et al. PRB 79, 241103 (2009))
 preconditioned conjugated gradient                                        
 perform sub-space diagonalisation
    before iterative eigenvector-optimisation
 modified Broyden-mixing scheme, WC =      100.0
 initial mixing is a Kerker type mixing with AMIX =  0.4000 and BMIX =      1.0000
 Hartree-type preconditioning will be used
 using additional bands           82
 real space projection scheme for non local part
 use partial core corrections
 no Harris-corrections to forces 
 use gradient corrections 
 use of overlap-Matrix (Vanderbilt PP)
 Gauss-broadening in eV      SIGMA  =   0.05


--------------------------------------------------------------------------------------------------------


  energy-cutoff  :      520.00
  volume of cell :    13405.53
      direct lattice vectors                 reciprocal lattice vectors
    21.138852197  0.000000000  0.000000000     0.047306258  0.000000000  0.000000000
     0.000000000 21.138852197  0.000000000     0.000000000  0.047306258  0.000000000
     0.000000000  0.000000000 30.000000000     0.000000000  0.000000000  0.033333333

  length of vectors
    21.138852197 21.138852197 30.000000000     0.047306258  0.047306258  0.033333333


 
 k-points in units of 2pi/SCALE and weight: KPOINTS created by Atomic Simulation Env
   0.00000000  0.00000000  0.00000000       1.000
 
 k-points in reciprocal lattice and weights: KPOINTS created by Atomic Simulation Env
   0.00000000  0.00000000  0.00000000       1.000
 
 position of ions in fractional coordinates (direct lattice) 
   0.52487205  0.44727195  0.60395065
   0.39231133  0.46165139  0.61078700
   0.26339305  0.47608855  0.61079377
   0.14170822  0.48780013  0.58092402
   0.59652247  0.55199977  0.59905498
   0.46907064  0.56385798  0.60994506
   0.34246127  0.57954675  0.61511645
   0.22277604  0.58963379  0.58023167
   0.56664249  0.32838245  0.60778402
   0.44139748  0.34484238  0.60567582
   0.31550767  0.35681216  0.60644342
   0.18871075  0.37192522  0.59621483
   0.66384965  0.65701406  0.58037257
   0.54183981  0.67065968  0.60037164
   0.41971121  0.68526050  0.61321809
   0.30584040  0.68813845  0.57554757
   0.59031295  0.21569356  0.57210440
   0.48291272  0.22390649  0.61529171
   0.36143784  0.23771510  0.59867988
   0.23512643  0.25512463  0.59063061
 
 position of ions in cartesian coordinates  (Angst):
  11.09519264  9.45481569 18.11851964
   8.29301117  9.75878054 18.32360986
   5.56782670 10.06396549 18.32381317
   2.99554902 10.31153489 17.42772071
  12.60980028 11.66864150 17.97164952
   9.91561493 11.91931043 18.29835166
   7.23923822 12.25095306 18.45349353
   4.70922974 12.46418145 17.40695009
  11.97817184  6.94162818 18.23352073
   9.33063611  7.28957220 18.17027452
   6.66946999  7.54259953 18.19330257
   3.98912875  7.86207228 17.88644482
  14.03301955 13.88852307 17.41117703
  11.45387166 14.17697584 18.01114913
   8.87221327 14.48562039 18.39654270
   6.46511499 14.54645692 17.26642710
  12.47853818  4.55951435 17.16313193
  10.20822067  4.73312626 18.45875144
   7.64038103  5.02502430 17.96039638
   4.97030275  5.39304187 17.71891824
 


--------------------------------------------------------------------------------------------------------


 k-point   1 :   0.0000 0.0000 0.0000  plane waves:  361007

 maximum and minimum number of plane-waves per node :     90260    90248

 maximum number of plane-waves:    361007
 maximum index in each direction: 
   IXMAX=   39   IYMAX=   39   IZMAX=   55
   IXMIN=  -39   IYMIN=  -39   IZMIN=  -55


 real space projection operators:
  total allocation   :      16142.20 KBytes
  max/ min on nodes  :       4047.61       4026.94


 parallel 3D FFT for wavefunctions:
    minimum data exchange during FFTs selected (reduces bandwidth)
 parallel 3D FFT for charge:
    minimum data exchange during FFTs selected (reduces bandwidth)


 total amount of memory used by VASP MPI-rank0   220736. kBytes
=======================================================================

   base      :      30000. kBytes
   nonlr-proj:       6988. kBytes
   fftplans  :      51223. kBytes
   grid      :     119428. kBytes
   one-center:         77. kBytes
   wavefun   :      13020. kBytes
 
     INWAV:  cpu time      0.0004: real time      0.0005
 Broyden mixing: mesh for mixing (old mesh)
   NGX = 79   NGY = 79   NGZ =111
  (NGX  =320   NGY  =320   NGZ  =448)
  gives a total of 692751 points

 initial charge density was supplied:
 charge density of overlapping atoms calculated
 number of electron     220.0000000 magnetization 
 keeping initial charge density in first step


--------------------------------------------------------------------------------------------------------


 Maximum index for non-local projection operator         1454
 Maximum index for augmentation-charges            0 (set IRDMAX)


--------------------------------------------------------------------------------------------------------


 First call to EWALD:  gamma=   0.075
 Maximum number of real-space cells 3x 3x 2
 Maximum number of reciprocal cells 2x 2x 3

    FEWALD:  cpu time      0.0083: real time      0.0092


--------------------------------------- Ionic step        1  -------------------------------------------




--------------------------------------- Iteration      1(   1)  ---------------------------------------


    POTLOK:  cpu time      1.2703: real time      1.2779
    SETDIJ:  cpu time      4.2306: real time      4.2335
    TRIAL :  cpu time      9.0386: real time      9.1556
    CORREC:  cpu time      0.0010: real time      0.0010
    --------------------------------------------
      LOOP:  cpu time     14.5451: real time     14.6738

 eigenvalue-minimisations  :   768
 total energy-change (2. order) :-0.6075303E+11  (-0.5044232E+11)
 number of electron     220.0000000 magnetization 
 augmentation part      220.0000000 magnetization 

 Free energy of the ion-electron system (eV)
  ---------------------------------------------------
  alpha Z        PSCENC =        34.75568252
  Ewald energy   TEWEN  =     30406.64970555
  -Hartree energ DENC   =    -48178.86219704
  -exchange      EXHF   =         0.00000000
  -V(xc)+E(xc)   XCENC  =     -5015.08646982
  PAW double counting   =     17231.65741691   -17738.24498967
  entropy T*S    EENTRO =         0.00000000
  eigenvalues    EBANDS = ******************
  atomic energy  EATOM  =     18521.66644781
  ---------------------------------------------------
  free energy    TOTEN  = ****************** eV

  energy without entropy =******************  energy(sigma->0) =******************


--------------------------------------------------------------------------------------------------------




--------------------------------------- Iteration      1(   2)  ---------------------------------------


    TRIAL :  cpu time      5.2765: real time      5.2791
    CORREC:  cpu time      0.0005: real time      0.0005
    --------------------------------------------
      LOOP:  cpu time      5.2799: real time      5.2912

 eigenvalue-minimisations  :   384
 total energy-change (2. order) :-0.3964391E+11  (-0.3914260E+11)
 number of electron     220.0000000 magnetization 
 augmentation part      220.0000000 magnetization 

 Free energy of the ion-electron system (eV)
  ---------------------------------------------------
  alpha Z        PSCENC =        34.75568252
  Ewald energy   TEWEN  =     30406.64970555
  -Hartree energ DENC   =    -48178.86219704
  -exchange      EXHF   =         0.00000000
  -V(xc)+E(xc)   XCENC  =     -5015.08646982
  PAW double counting   =     17231.65741691   -17738.24498967
  entropy T*S    EENTRO =         0.00000000
  eigenvalues    EBANDS = ******************
  atomic energy  EATOM  =     18521.66644781
  ---------------------------------------------------
  free energy    TOTEN  = ****************** eV

  energy without entropy =******************  energy(sigma->0) =******************


--------------------------------------------------------------------------------------------------------




--------------------------------------- Iteration      1(   3)  ---------------------------------------


    TRIAL :  cpu time      8.7137: real time      8.7194
    CORREC:  cpu time      0.0005: real time      0.0005
    --------------------------------------------
      LOOP:  cpu time      8.7160: real time      8.7297

 eigenvalue-minimisations  :   768
 total energy-change (2. order) :-0.5189238E+10  (-0.4795296E+10)
 number of electron     220.0000000 magnetization 
 augmentation part      220.0000000 magnetization 

 Free energy of the ion-electron system (eV)
  ---------------------------------------------------
  alpha Z        PSCENC =        34.75568252
  Ewald energy   TEWEN  =     30406.64970555
  -Hartree energ DENC   =    -48178.86219704
  -exchange      EXHF   =         0.00000000
  -V(xc)+E(xc)   XCENC  =     -5015.08646982
  PAW double counting   =     17231.65741691   -17738.24498967
  entropy T*S    EENTRO =         0.00000000
  eigenvalues    EBANDS = ******************
  atomic energy  EATOM  =     18521.66644781
  ---------------------------------------------------
  free energy    TOTEN  = ****************** eV

  energy without entropy =******************  energy(sigma->0) =******************


--------------------------------------------------------------------------------------------------------




--------------------------------------- Iteration      1(   4)  ---------------------------------------


    TRIAL :  cpu time      8.6856: real time      8.6929
    CORREC:  cpu time      0.0006: real time      0.0006
    --------------------------------------------
      LOOP:  cpu time      8.6885: real time      8.7035

 eigenvalue-minimisations  :   768
 total energy-change (2. order) :-0.3633760E+09  (-0.3344326E+09)
 number of electron     220.0000000 magnetization 
 augmentation part      220.0000000 magnetization 

 Free energy of the ion-electron system (eV)
  ---------------------------------------------------
  alpha Z        PSCENC =        34.75568252
  Ewald energy   TEWEN  =     30406.64970555
  -Hartree energ DENC   =    -48178.86219704
  -exchange      EXHF   =         0.00000000
  -V(xc)+E(xc)   XCENC  =     -5015.08646982
  PAW double counting   =     17231.65741691   -17738.24498967
  entropy T*S    EENTRO =         0.00000000
  eigenvalues    EBANDS = ******************
  atomic energy  EATOM  =     18521.66644781
  ---------------------------------------------------
  free energy    TOTEN  = ****************** eV

  energy without entropy =******************  energy(sigma->0) =******************


--------------------------------------------------------------------------------------------------------




--------------------------------------- Iteration      1(   5)  ---------------------------------------


    TRIAL :  cpu time      7.4831: real time      7.4876
    CORREC:  cpu time      0.0006: real time      0.0006
    CHARGE:  cpu time      0.7952: real time      0.7945
    --------------------------------------------
      LOOP:  cpu time      8.2889: real time      8.2928

 eigenvalue-minimisations  :   640
 total energy-change (2. order) :-0.2194367E+08  (-0.2056680E+08)
 number of electron     220.0000000 magnetization 
 augmentation part        0.0003392 magnetization 

 Free energy of the ion-electron system (eV)
  ---------------------------------------------------
  alpha Z        PSCENC =        34.75568252
  Ewald energy   TEWEN  =     30406.64970555
  -Hartree energ DENC   =    -48178.86219704
  -exchange      EXHF   =         0.00000000
  -V(xc)+E(xc)   XCENC  =     -5015.08646982
  PAW double counting   =     17231.65741691   -17738.24498967
  entropy T*S    EENTRO =         0.00000000
  eigenvalues    EBANDS = ******************
  atomic energy  EATOM  =     18521.66644781
  ---------------------------------------------------
  free energy    TOTEN  = ****************** eV

  energy without entropy =******************  energy(sigma->0) =******************


--------------------------------------------------------------------------------------------------------




--------------------------------------- Iteration      1(   6)  ---------------------------------------


    POTLOK:  cpu time      3.7667: real time      3.7700
    SETDIJ:  cpu time      4.9281: real time      4.9320
    TRIAL :  cpu time      4.6558: real time      4.6602
    CORREC:  cpu time     10.1043: real time     10.1104
    CHARGE:  cpu time      0.7673: real time      0.7681
    --------------------------------------------
      LOOP:  cpu time     24.2241: real time     24.2514

 eigenvalue-minimisations  :     0
 total energy-change (2. order) : 0.1059716E+12  ( 0.8715648E+03)
 number of electron     220.0000000 magnetization 
 augmentation part        0.0263314 magnetization 

 Free energy of the ion-electron system (eV)
  ---------------------------------------------------
  alpha Z        PSCENC =        34.75568252
  Ewald energy   TEWEN  =     30406.64970555
  -Hartree energ DENC   =    -69735.78773952
  -exchange      EXHF   =         0.00000000
  -V(xc)+E(xc)   XCENC  =       970.86067360
  PAW double counting   =       359.27207605     -858.37628998
  entropy T*S    EENTRO =         0.00000000
  eigenvalues    EBANDS =    148117.05539373
  atomic energy  EATOM  =     18521.66644781
  ---------------------------------------------------
  free energy    TOTEN  =    127816.09594977 eV

  energy without entropy =   127816.09594977  energy(sigma->0) =   127816.09594977


--------------------------------------------------------------------------------------------------------




--------------------------------------- Iteration      1(   7)  ---------------------------------------


    POTLOK:  cpu time      3.7438: real time      3.7467
    SETDIJ:  cpu time      4.7284: real time      4.7317
    TRIAL :  cpu time      4.6092: real time      4.6130
    CORREC:  cpu time     10.3611: real time     10.3689
    CHARGE:  cpu time      0.7580: real time      0.7583
    --------------------------------------------
      LOOP:  cpu time     24.2028: real time     24.2287

 eigenvalue-minimisations  :     0
 total energy-change (2. order) :-0.4220176E+04  ( 0.2053051E+06)
 number of electron     220.0000000 magnetization 
 augmentation part        0.4476185 magnetization 

 Free energy of the ion-electron system (eV)
  ---------------------------------------------------
  alpha Z        PSCENC =        34.75568252
  Ewald energy   TEWEN  =     30406.64970555
  -Hartree energ DENC   =    -69205.60102807
  -exchange      EXHF   =         0.00000000
  -V(xc)+E(xc)   XCENC  =      1045.04974486
  PAW double counting   =       359.42367669     -858.52835058
  entropy T*S    EENTRO =         0.00000000
  eigenvalues    EBANDS =    143292.50426629
  atomic energy  EATOM  =     18521.66644781
  ---------------------------------------------------
  free energy    TOTEN  =    123595.92014508 eV

  energy without entropy =   123595.92014508  energy(sigma->0) =   123595.92014508


--------------------------------------------------------------------------------------------------------




--------------------------------------- Iteration      1(   8)  ---------------------------------------


    POTLOK:  cpu time      3.7448: real time      3.7480
    SETDIJ:  cpu time      4.7375: real time      4.7409
    TRIAL :  cpu time      4.5918: real time      4.5954
    CORREC:  cpu time     10.6504: real time     10.6583
    CHARGE:  cpu time      0.7657: real time      0.7648
    --------------------------------------------
      LOOP:  cpu time     24.5041: real time     24.5215

 eigenvalue-minimisations  :     0
 total energy-change (2. order) :-0.5526266E+05  (-0.9354618E+05)
 number of electron     220.0000000 magnetization 
 augmentation part       -0.8949330 magnetization 

 Free energy of the ion-electron system (eV)
  ---------------------------------------------------
  alpha Z        PSCENC =        34.75568252
  Ewald energy   TEWEN  =     30406.64970555
  -Hartree energ DENC   =    -48082.71690498
  -exchange      EXHF   =         0.00000000
  -V(xc)+E(xc)   XCENC  =       323.59226412
  PAW double counting   =      1524.11099225    -2027.19867532
  entropy T*S    EENTRO =         0.00000000
  eigenvalues    EBANDS =     67632.39632274
  atomic energy  EATOM  =     18521.66644781
  ---------------------------------------------------
  free energy    TOTEN  =     68333.25583469 eV

  energy without entropy =    68333.25583469  energy(sigma->0) =    68333.25583469


--------------------------------------------------------------------------------------------------------




--------------------------------------- Iteration      1(   9)  ---------------------------------------


    POTLOK:  cpu time      3.7344: real time      3.7395
    SETDIJ:  cpu time      4.7305: real time      4.7338
    TRIAL :  cpu time      4.6038: real time      4.6083
    CORREC:  cpu time     10.6463: real time     10.6530
    CHARGE:  cpu time      0.7715: real time      0.7710
    --------------------------------------------
      LOOP:  cpu time     24.4901: real time     24.5169

 eigenvalue-minimisations  :     0
 total energy-change (2. order) :-0.2461956E+05  (-0.3930138E+05)
 number of electron     220.0000000 magnetization 
 augmentation part       -0.2128947 magnetization 

 Free energy of the ion-electron system (eV)
  ---------------------------------------------------
  alpha Z        PSCENC =        34.75568252
  Ewald energy   TEWEN  =     30406.64970555
  -Hartree energ DENC   =    -23732.90909688
  -exchange      EXHF   =         0.00000000
  -V(xc)+E(xc)   XCENC  =      -144.10713541
  PAW double counting   =      1500.05379483    -2002.49289089
  entropy T*S    EENTRO =         0.00000000
  eigenvalues    EBANDS =     19130.07708486
  atomic energy  EATOM  =     18521.66644781
  ---------------------------------------------------
  free energy    TOTEN  =     43713.69359239 eV

  energy without entropy =    43713.69359239  energy(sigma->0) =    43713.69359239


--------------------------------------------------------------------------------------------------------




--------------------------------------- Iteration      1(  10)  ---------------------------------------


    POTLOK:  cpu time      3.7383: real time      3.7409
    SETDIJ:  cpu time      4.7437: real time      4.7479
    TRIAL :  cpu time      4.5952: real time      4.5987
    CORREC:  cpu time     10.6624: real time     10.6691
    CHARGE:  cpu time      0.7747: real time      0.7734
    --------------------------------------------
      LOOP:  cpu time     24.5174: real time     24.5412

 eigenvalue-minimisations  :     0
 total energy-change (2. order) : 0.1933266E+05  (-0.6075852E+05)
 number of electron     220.0000000 magnetization 
 augmentation part       -0.1636971 magnetization 

 Free energy of the ion-electron system (eV)
  ---------------------------------------------------
  alpha Z        PSCENC =        34.75568252
  Ewald energy   TEWEN  =     30406.64970555
  -Hartree energ DENC   =    -29562.15073849
  -exchange      EXHF   =         0.00000000
  -V(xc)+E(xc)   XCENC  =       -52.98728474
  PAW double counting   =       586.70394743    -1086.79044505
  entropy T*S    EENTRO =         0.00000000
  eigenvalues    EBANDS =     44198.50285394
  atomic energy  EATOM  =     18521.66644781
  ---------------------------------------------------
  free energy    TOTEN  =     63046.35016899 eV

  energy without entropy =    63046.35016899  energy(sigma->0) =    63046.35016899


--------------------------------------------------------------------------------------------------------




--------------------------------------- Iteration      1(  11)  ---------------------------------------


    POTLOK:  cpu time      3.7313: real time      3.7360
    SETDIJ:  cpu time      4.7287: real time      4.7321
    TRIAL :  cpu time      4.5993: real time      4.6028
    CORREC:  cpu time     10.6451: real time     10.6516
    CHARGE:  cpu time      0.7690: real time      0.7684
    --------------------------------------------
      LOOP:  cpu time     24.4770: real time     24.5018

 eigenvalue-minimisations  :     0
 total energy-change (2. order) : 0.1937735E+05  (-0.6558681E+05)
 number of electron     220.0000000 magnetization 
 augmentation part       -0.0450950 magnetization 

 Free energy of the ion-electron system (eV)
  ---------------------------------------------------
  alpha Z        PSCENC =        34.75568252
  Ewald energy   TEWEN  =     30406.64970555
  -Hartree energ DENC   =    -39781.92950899
  -exchange      EXHF   =         0.00000000
  -V(xc)+E(xc)   XCENC  =       309.91322076
  PAW double counting   =       430.89564896     -930.54296242
  entropy T*S    EENTRO =         0.00000000
  eigenvalues    EBANDS =     73432.29010659
  atomic energy  EATOM  =     18521.66644781
  ---------------------------------------------------
  free energy    TOTEN  =     82423.69834078 eV

  energy without entropy =    82423.69834078  energy(sigma->0) =    82423.69834078


--------------------------------------------------------------------------------------------------------




--------------------------------------- Iteration      1(  12)  ---------------------------------------


    POTLOK:  cpu time      3.7442: real time      3.7478
    SETDIJ:  cpu time      4.7370: real time      4.7403
    TRIAL :  cpu time      4.5918: real time      4.5959
    CORREC:  cpu time     10.6359: real time     10.6438
    CHARGE:  cpu time      0.7788: real time      0.7782
    --------------------------------------------
      LOOP:  cpu time     24.4898: real time     24.5165

 eigenvalue-minimisations  :     0
 total energy-change (2. order) : 0.1465875E+05  (-0.5717531E+05)
 number of electron     220.0000000 magnetization 
 augmentation part       -0.1304328 magnetization 

 Free energy of the ion-electron system (eV)
  ---------------------------------------------------
  alpha Z        PSCENC =        34.75568252
  Ewald energy   TEWEN  =     30406.64970555
  -Hartree energ DENC   =    -50343.84514302
  -exchange      EXHF   =         0.00000000
  -V(xc)+E(xc)   XCENC  =       610.16761196
  PAW double counting   =       381.19780068     -880.38121832
  entropy T*S    EENTRO =         0.00000000
  eigenvalues    EBANDS =     98352.24239726
  atomic energy  EATOM  =     18521.66644781
  ---------------------------------------------------
  free energy    TOTEN  =     97082.45328445 eV

  energy without entropy =    97082.45328445  energy(sigma->0) =    97082.45328445


--------------------------------------------------------------------------------------------------------




--------------------------------------- Iteration      1(  13)  ---------------------------------------


    POTLOK:  cpu time      3.7404: real time      3.7467
    SETDIJ:  cpu time      4.7277: real time      4.7311
    TRIAL :  cpu time      4.6064: real time      4.6099
    CORREC:  cpu time     10.6189: real time     10.6280
    CHARGE:  cpu time      0.7706: real time      0.7701
    --------------------------------------------
      LOOP:  cpu time     24.4748: real time     24.4968

 eigenvalue-minimisations  :     0
 total energy-change (2. order) : 0.4321776E+04  (-0.6829507E+05)
 number of electron     220.0000000 magnetization 
 augmentation part       -0.0398985 magnetization 

 Free energy of the ion-electron system (eV)
  ---------------------------------------------------
  alpha Z        PSCENC =        34.75568252
  Ewald energy   TEWEN  =     30406.64970555
  -Hartree energ DENC   =    -54364.52345391
  -exchange      EXHF   =         0.00000000
  -V(xc)+E(xc)   XCENC  =       679.74853963
  PAW double counting   =       379.22343529     -878.39306447
  entropy T*S    EENTRO =         0.00000000
  eigenvalues    EBANDS =    106625.10166553
  atomic energy  EATOM  =     18521.66644781
  ---------------------------------------------------
  free energy    TOTEN  =    101404.22895796 eV

  energy without entropy =   101404.22895796  energy(sigma->0) =   101404.22895796


--------------------------------------------------------------------------------------------------------




--------------------------------------- Iteration      1(  14)  ---------------------------------------


    POTLOK:  cpu time      3.7489: real time      3.7516
    SETDIJ:  cpu time      4.7274: real time      4.7307
    TRIAL :  cpu time      4.6410: real time      4.6454
    CORREC:  cpu time     10.3958: real time     10.4025
    CHARGE:  cpu time      0.7823: real time      0.7831
    --------------------------------------------
      LOOP:  cpu time     24.2977: real time     24.3244

 eigenvalue-minimisations  :     0
 total energy-change (2. order) :-0.1961369E+05  ( 0.4739023E+05)
 number of electron     220.0000000 magnetization 
 augmentation part       -1.3814135 magnetization 

 Free energy of the ion-electron system (eV)
  ---------------------------------------------------
  alpha Z        PSCENC =        34.75568252
  Ewald energy   TEWEN  =     30406.64970555
  -Hartree energ DENC   =    -40187.28983716
  -exchange      EXHF   =         0.00000000
  -V(xc)+E(xc)   XCENC  =       423.94503195
  PAW double counting   =       368.64664058     -867.76594482
  entropy T*S    EENTRO =         0.00000000
  eigenvalues    EBANDS =     73089.93520809
  atomic energy  EATOM  =     18521.66644781
  ---------------------------------------------------
  free energy    TOTEN  =     81790.54293452 eV

  energy without entropy =    81790.54293452  energy(sigma->0) =    81790.54293452


--------------------------------------------------------------------------------------------------------




--------------------------------------- Iteration      1(  15)  ---------------------------------------


    POTLOK:  cpu time      3.7424: real time      3.7452
    SETDIJ:  cpu time      4.7247: real time      4.7278
    TRIAL :  cpu time      4.6047: real time      4.6079
    CORREC:  cpu time     10.6580: real time     10.6656
    CHARGE:  cpu time      0.7738: real time      0.7734
    --------------------------------------------
      LOOP:  cpu time     24.5057: real time     24.5305

 eigenvalue-minimisations  :     0
 total energy-change (2. order) :-0.4841606E+05  (-0.1843820E+05)
 number of electron     220.0000000 magnetization 
 augmentation part       -3.0413685 magnetization 

 Free energy of the ion-electron system (eV)
  ---------------------------------------------------
  alpha Z        PSCENC =        34.75568252
  Ewald energy   TEWEN  =     30406.64970555
  -Hartree energ DENC   =    -10623.90754308
  -exchange      EXHF   =         0.00000000
  -V(xc)+E(xc)   XCENC  =      -271.10321350
  PAW double counting   =      2205.97752111    -2706.76780589
  entropy T*S    EENTRO =         0.00000000
  eigenvalues    EBANDS =     -4192.78613675
  atomic energy  EATOM  =     18521.66644781
  ---------------------------------------------------
  free energy    TOTEN  =     33374.48465778 eV

  energy without entropy =    33374.48465778  energy(sigma->0) =    33374.48465778


--------------------------------------------------------------------------------------------------------




--------------------------------------- Iteration      1(  16)  ---------------------------------------


    POTLOK:  cpu time      3.7286: real time      3.7315
    SETDIJ:  cpu time      4.7318: real time      4.7360
    TRIAL :  cpu time      4.5964: real time      4.5997
    CORREC:  cpu time     10.6475: real time     10.6547
    CHARGE:  cpu time      0.7668: real time      0.7652
    --------------------------------------------
      LOOP:  cpu time     24.4821: real time     24.4984

 eigenvalue-minimisations  :     0
 total energy-change (2. order) :-0.1735772E+05  (-0.6321407E+04)
 number of electron     220.0000000 magnetization 
 augmentation part       -3.8226913 magnetization 

 Free energy of the ion-electron system (eV)
  ---------------------------------------------------
  alpha Z        PSCENC =        34.75568252
  Ewald energy   TEWEN  =     30406.64970555
  -Hartree energ DENC   =    -17064.86694097
  -exchange      EXHF   =         0.00000000
  -V(xc)+E(xc)   XCENC  =       -77.26917535
  PAW double counting   =      5521.01379384    -6049.33926814
  entropy T*S    EENTRO =         0.00000000
  eigenvalues    EBANDS =    -15275.84733686
  atomic energy  EATOM  =     18521.66644781
  ---------------------------------------------------
  free energy    TOTEN  =     16016.76290841 eV

  energy without entropy =    16016.76290841  energy(sigma->0) =    16016.76290841


--------------------------------------------------------------------------------------------------------




--------------------------------------- Iteration      1(  17)  ---------------------------------------


    POTLOK:  cpu time      3.7434: real time      3.7473
    SETDIJ:  cpu time      4.7414: real time      4.7449
    TRIAL :  cpu time      4.6096: real time      4.6131
    CORREC:  cpu time     10.6336: real time     10.6410
    CHARGE:  cpu time      0.7685: real time      0.7679
    --------------------------------------------
      LOOP:  cpu time     24.4997: real time     24.5251

 eigenvalue-minimisations  :     0
 total energy-change (2. order) :-0.5563244E+04  (-0.3410063E+04)
 number of electron     220.0000000 magnetization 
 augmentation part       -2.0528341 magnetization 

 Free energy of the ion-electron system (eV)
  ---------------------------------------------------
  alpha Z        PSCENC =        34.75568252
  Ewald energy   TEWEN  =     30406.64970555
  -Hartree energ DENC   =    -24747.89566638
  -exchange      EXHF   =         0.00000000
  -V(xc)+E(xc)   XCENC  =        26.73932610
  PAW double counting   =      8550.38027752    -9105.93422171
  entropy T*S    EENTRO =         0.00000000
  eigenvalues    EBANDS =    -13232.84242097
  atomic energy  EATOM  =     18521.66644781
  ---------------------------------------------------
  free energy    TOTEN  =     10453.51913045 eV

  energy without entropy =    10453.51913045  energy(sigma->0) =    10453.51913045


--------------------------------------------------------------------------------------------------------




--------------------------------------- Iteration      1(  18)  ---------------------------------------


    POTLOK:  cpu time      3.7375: real time      3.7424
    SETDIJ:  cpu time      4.7374: real time      4.7407
    TRIAL :  cpu time      4.6581: real time      4.6616
    CORREC:  cpu time     10.6529: real time     10.6600
    CHARGE:  cpu time      0.7902: real time      0.7895
    --------------------------------------------
      LOOP:  cpu time     24.5796: real time     24.6060

 eigenvalue-minimisations  :     0
 total energy-change (2. order) :-0.3607024E+04  (-0.2351456E+04)
 number of electron     219.9999999 magnetization 
 augmentation part        4.8897865 magnetization 

 Free energy of the ion-electron system (eV)
  ---------------------------------------------------
  alpha Z        PSCENC =        34.75568252
  Ewald energy   TEWEN  =     30406.64970555
  -Hartree energ DENC   =    -30933.88588622
  -exchange      EXHF   =         0.00000000
  -V(xc)+E(xc)   XCENC  =        95.29950740
  PAW double counting   =     11409.69578287   -11999.39708163
  entropy T*S    EENTRO =         0.00000000
  eigenvalues    EBANDS =    -10688.28853757
  atomic energy  EATOM  =     18521.66644781
  ---------------------------------------------------
  free energy    TOTEN  =      6846.49562074 eV

  energy without entropy =     6846.49562074  energy(sigma->0) =     6846.49562074


--------------------------------------------------------------------------------------------------------




--------------------------------------- Iteration      1(  19)  ---------------------------------------


    POTLOK:  cpu time      3.7332: real time      3.7364
    SETDIJ:  cpu time      4.7315: real time      4.7348
    TRIAL :  cpu time      4.6031: real time      4.6067
    CORREC:  cpu time     10.6790: real time     10.6870
    CHARGE:  cpu time      0.7755: real time      0.7747
    --------------------------------------------
      LOOP:  cpu time     24.5263: real time     24.5510

 eigenvalue-minimisations  :     0
 total energy-change (2. order) :-0.2612713E+04  (-0.1605541E+04)
 number of electron     219.9999999 magnetization 
 augmentation part       17.9791497 magnetization 

 Free energy of the ion-electron system (eV)
  ---------------------------------------------------
  alpha Z        PSCENC =        34.75568252
  Ewald energy   TEWEN  =     30406.64970555
  -Hartree energ DENC   =    -35731.20022627
  -exchange      EXHF   =         0.00000000
  -V(xc)+E(xc)   XCENC  =       151.42216565
  PAW double counting   =     17883.46768736   -18533.34700133
  entropy T*S    EENTRO =         0.00000000
  eigenvalues    EBANDS =     -8499.63221931
  atomic energy  EATOM  =     18521.66644781
  ---------------------------------------------------
  free energy    TOTEN  =      4233.78224200 eV

  energy without entropy =     4233.78224200  energy(sigma->0) =     4233.78224200


--------------------------------------------------------------------------------------------------------




--------------------------------------- Iteration      1(  20)  ---------------------------------------


    POTLOK:  cpu time      3.7331: real time      3.7374
    SETDIJ:  cpu time      4.7333: real time      4.7373
    TRIAL :  cpu time      4.6033: real time      4.6066
    CORREC:  cpu time     10.6555: real time     10.6644
    CHARGE:  cpu time      0.7779: real time      0.7774
    --------------------------------------------
      LOOP:  cpu time     24.5064: real time     24.5346

 eigenvalue-minimisations  :     0
 total energy-change (2. order) :-0.1820016E+04  (-0.7331312E+02)
 number of electron     219.9999999 magnetization 
 augmentation part       15.5414017 magnetization 

 Free energy of the ion-electron system (eV)
  ---------------------------------------------------
  alpha Z        PSCENC =        34.75568252
  Ewald energy   TEWEN  =     30406.64970555
  -Hartree energ DENC   =    -39151.49665168
  -exchange      EXHF   =         0.00000000
  -V(xc)+E(xc)   XCENC  =       199.78748208
  PAW double counting   =     35446.73573901   -36174.39071246
  entropy T*S    EENTRO =         0.00000000
  eigenvalues    EBANDS =     -6869.94156768
  atomic energy  EATOM  =     18521.66644781
  ---------------------------------------------------
  free energy    TOTEN  =      2413.76612516 eV

  energy without entropy =     2413.76612516  energy(sigma->0) =     2413.76612516


--------------------------------------------------------------------------------------------------------




--------------------------------------- Iteration      1(  21)  ---------------------------------------


    POTLOK:  cpu time      3.7378: real time      3.7420
    SETDIJ:  cpu time      4.7425: real time      4.7465
    TRIAL :  cpu time      4.5999: real time      4.6038
    CORREC:  cpu time     10.6554: real time     10.6629
    CHARGE:  cpu time      0.7747: real time      0.7742
    --------------------------------------------
      LOOP:  cpu time     24.5141: real time     24.5406

 eigenvalue-minimisations  :     0
 total energy-change (2. order) : 0.1574467E+03  (-0.1151637E+04)
 number of electron     220.0000000 magnetization 
 augmentation part       32.5830911 magnetization 

 Free energy of the ion-electron system (eV)
  ---------------------------------------------------
  alpha Z        PSCENC =        34.75568252
  Ewald energy   TEWEN  =     30406.64970555
  -Hartree energ DENC   =    -38694.36949129
  -exchange      EXHF   =         0.00000000
  -V(xc)+E(xc)   XCENC  =       192.19324953
  PAW double counting   =     36187.22241815   -36907.56856831
  entropy T*S    EENTRO =         0.00000000
  eigenvalues    EBANDS =     -7169.33662638
  atomic energy  EATOM  =     18521.66644781
  ---------------------------------------------------
  free energy    TOTEN  =      2571.21281759 eV

  energy without entropy =     2571.21281759  energy(sigma->0) =     2571.21281759


--------------------------------------------------------------------------------------------------------




--------------------------------------- Iteration      1(  22)  ---------------------------------------


    POTLOK:  cpu time      3.7451: real time      3.7490
    SETDIJ:  cpu time      4.7416: real time      4.7449
    TRIAL :  cpu time      4.5896: real time      4.5930
    CORREC:  cpu time     10.6347: real time     10.6431
    CHARGE:  cpu time      0.7736: real time      0.7730
    --------------------------------------------
      LOOP:  cpu time     24.4882: real time     24.5148

 eigenvalue-minimisations  :     0
 total energy-change (2. order) :-0.1226662E+04  (-0.6416804E+03)
 number of electron     220.0000000 magnetization 
 augmentation part       48.6581188 magnetization 

 Free energy of the ion-electron system (eV)
  ---------------------------------------------------
  alpha Z        PSCENC =        34.75568252
  Ewald energy   TEWEN  =     30406.64970555
  -Hartree energ DENC   =    -40647.56224095
  -exchange      EXHF   =         0.00000000
  -V(xc)+E(xc)   XCENC  =       292.03645826
  PAW double counting   =     64379.46022561   -65217.30726130
  entropy T*S    EENTRO =         0.00000000
  eigenvalues    EBANDS =     -6425.14843731
  atomic energy  EATOM  =     18521.66644781
  ---------------------------------------------------
  free energy    TOTEN  =      1344.55058019 eV

  energy without entropy =     1344.55058019  energy(sigma->0) =     1344.55058019


--------------------------------------------------------------------------------------------------------




--------------------------------------- Iteration      1(  23)  ---------------------------------------


    POTLOK:  cpu time      3.7443: real time      3.7470
    SETDIJ:  cpu time      4.7360: real time      4.7393
    TRIAL :  cpu time      4.5940: real time      4.5977
    CORREC:  cpu time     42.4693: real time     42.5009
    CHARGE:  cpu time      0.7738: real time      0.7735
    --------------------------------------------
      LOOP:  cpu time     56.3208: real time     56.3692

 eigenvalue-minimisations  :     0
 total energy-change (2. order) :-0.6597502E+03  (-0.3412150E+02)
 number of electron     219.9999999 magnetization 
 augmentation part       53.1278598 magnetization 

 Free energy of the ion-electron system (eV)
  ---------------------------------------------------
  alpha Z        PSCENC =        34.75568252
  Ewald energy   TEWEN  =     30406.64970555
  -Hartree energ DENC   =    -43450.61015501
  -exchange      EXHF   =         0.00000000
  -V(xc)+E(xc)   XCENC  =       401.53827915
  PAW double counting   =    101426.32427519  -102318.46117620
  entropy T*S    EENTRO =         0.00000000
  eigenvalues    EBANDS =     -4337.06268032
  atomic energy  EATOM  =     18521.66644781
  ---------------------------------------------------
  free energy    TOTEN  =       684.80037870 eV

  energy without entropy =      684.80037870  energy(sigma->0) =      684.80037870


--------------------------------------------------------------------------------------------------------




--------------------------------------- Iteration      1(  24)  ---------------------------------------


    POTLOK:  cpu time      3.7462: real time      3.7502
    SETDIJ:  cpu time      4.7803: real time      4.7844
    TRIAL :  cpu time      4.6085: real time      4.6122
    CORREC:  cpu time     10.6015: real time     10.6100
    CHARGE:  cpu time      0.7704: real time      0.7698
    --------------------------------------------
      LOOP:  cpu time     24.5182: real time     24.5383

 eigenvalue-minimisations  :     0
 total energy-change (2. order) : 0.1118680E+04  (-0.8339909E+03)
 number of electron     219.9999999 magnetization 
 augmentation part       56.3353244 magnetization 

 Free energy of the ion-electron system (eV)
  ---------------------------------------------------
  alpha Z        PSCENC =        34.75568252
  Ewald energy   TEWEN  =     30406.64970555
  -Hartree energ DENC   =    -37016.52289815
  -exchange      EXHF   =         0.00000000
  -V(xc)+E(xc)   XCENC  =       305.92111384
  PAW double counting   =     69765.08661816   -70534.76669504
  entropy T*S    EENTRO =         0.00000000
  eigenvalues    EBANDS =     -9679.31006111
  atomic energy  EATOM  =     18521.66644781
  ---------------------------------------------------
  free energy    TOTEN  =      1803.47991359 eV

  energy without entropy =     1803.47991359  energy(sigma->0) =     1803.47991359


--------------------------------------------------------------------------------------------------------




--------------------------------------- Iteration      1(  25)  ---------------------------------------


    POTLOK:  cpu time      3.7345: real time      3.7391
    SETDIJ:  cpu time      4.7745: real time      4.7779
    TRIAL :  cpu time      4.5988: real time      4.6024
    CORREC:  cpu time     10.6044: real time     10.6124
    CHARGE:  cpu time      0.7689: real time      0.7682
    --------------------------------------------
      LOOP:  cpu time     24.4839: real time     24.5111

 eigenvalue-minimisations  :     0
 total energy-change (2. order) :-0.6554257E+03  (-0.1466128E+03)
 number of electron     219.9999999 magnetization 
 augmentation part       57.0356791 magnetization 

 Free energy of the ion-electron system (eV)
  ---------------------------------------------------
  alpha Z        PSCENC =        34.75568252
  Ewald energy   TEWEN  =     30406.64970555
  -Hartree energ DENC   =    -41123.83597657
  -exchange      EXHF   =         0.00000000
  -V(xc)+E(xc)   XCENC  =       360.90055307
  PAW double counting   =     87297.66152784   -88096.22899249
  entropy T*S    EENTRO =         0.00000000
  eigenvalues    EBANDS =     -6253.51471533
  atomic energy  EATOM  =     18521.66644781
  ---------------------------------------------------
  free energy    TOTEN  =      1148.05423240 eV

  energy without entropy =     1148.05423240  energy(sigma->0) =     1148.05423240


--------------------------------------------------------------------------------------------------------




--------------------------------------- Iteration      1(  26)  ---------------------------------------


    POTLOK:  cpu time      3.7320: real time      3.7350
    SETDIJ:  cpu time      4.7819: real time      4.7854
    TRIAL :  cpu time      4.5898: real time      4.5932
    CORREC:  cpu time     10.6108: real time     10.6185
    CHARGE:  cpu time      0.7702: real time      0.7696
    --------------------------------------------
      LOOP:  cpu time     24.4874: real time     24.5128

 eigenvalue-minimisations  :     0
 total energy-change (2. order) :-0.1440035E+03  (-0.6717780E+02)
 number of electron     219.9999999 magnetization 
 augmentation part       56.6280296 magnetization 

 Free energy of the ion-electron system (eV)
  ---------------------------------------------------
  alpha Z        PSCENC =        34.75568252
  Ewald energy   TEWEN  =     30406.64970555
  -Hartree energ DENC   =    -42940.79583697
  -exchange      EXHF   =         0.00000000
  -V(xc)+E(xc)   XCENC  =       383.52819544
  PAW double counting   =     96284.14235971   -97097.56458693
  entropy T*S    EENTRO =         0.00000000
  eigenvalues    EBANDS =     -4588.33123470
  atomic energy  EATOM  =     18521.66644781
  ---------------------------------------------------
  free energy    TOTEN  =      1004.05073244 eV

  energy without entropy =     1004.05073244  energy(sigma->0) =     1004.05073244


--------------------------------------------------------------------------------------------------------




--------------------------------------- Iteration      1(  27)  ---------------------------------------


    POTLOK:  cpu time      3.7379: real time      3.7407
    SETDIJ:  cpu time      4.7797: real time      4.7828
    TRIAL :  cpu time      4.6050: real time      4.6095
    CORREC:  cpu time     10.5798: real time     10.5863
    CHARGE:  cpu time      0.7657: real time      0.7651
    --------------------------------------------
      LOOP:  cpu time     24.4714: real time     24.4955

 eigenvalue-minimisations  :     0
 total energy-change (2. order) :-0.6881593E+02  (-0.4697317E+02)
 number of electron     220.0000000 magnetization 
 augmentation part       48.7227653 magnetization 

 Free energy of the ion-electron system (eV)
  ---------------------------------------------------
  alpha Z        PSCENC =        34.75568252
  Ewald energy   TEWEN  =     30406.64970555
  -Hartree energ DENC   =    -43274.13205014
  -exchange      EXHF   =         0.00000000
  -V(xc)+E(xc)   XCENC  =       391.31654313
  PAW double counting   =     94871.64109628   -95691.98265848
  entropy T*S    EENTRO =         0.00000000
  eigenvalues    EBANDS =     -4324.67996728
  atomic energy  EATOM  =     18521.66644781
  ---------------------------------------------------
  free energy    TOTEN  =       935.23479940 eV

  energy without entropy =      935.23479940  energy(sigma->0) =      935.23479940


--------------------------------------------------------------------------------------------------------




--------------------------------------- Iteration      1(  28)  ---------------------------------------


    POTLOK:  cpu time      3.7442: real time      3.7472
    SETDIJ:  cpu time      4.7753: real time      4.7796
    TRIAL :  cpu time      4.5948: real time      4.5982
    CORREC:  cpu time     10.5972: real time     10.6038
    CHARGE:  cpu time      0.7668: real time      0.7662
    --------------------------------------------
      LOOP:  cpu time     24.4815: real time     24.5068

 eigenvalue-minimisations  :     0
 total energy-change (2. order) :-0.4624921E+03  (-0.2310064E+02)
 number of electron     220.0000000 magnetization 
 augmentation part       48.4089978 magnetization 

 Free energy of the ion-electron system (eV)
  ---------------------------------------------------
  alpha Z        PSCENC =        34.75568252
  Ewald energy   TEWEN  =     30406.64970555
  -Hartree energ DENC   =    -45555.74296208
  -exchange      EXHF   =         0.00000000
  -V(xc)+E(xc)   XCENC  =       411.72304471
  PAW double counting   =     69429.17157843   -70274.69573946
  entropy T*S    EENTRO =         0.00000000
  eigenvalues    EBANDS =     -2500.78510293
  atomic energy  EATOM  =     18521.66644781
  ---------------------------------------------------
  free energy    TOTEN  =       472.74265455 eV

  energy without entropy =      472.74265455  energy(sigma->0) =      472.74265455


--------------------------------------------------------------------------------------------------------




--------------------------------------- Iteration      1(  29)  ---------------------------------------


    POTLOK:  cpu time      3.7450: real time      3.7481
    SETDIJ:  cpu time      4.7749: real time      4.7792
    TRIAL :  cpu time      4.6003: real time      4.6040
    CORREC:  cpu time     10.5991: real time     10.6066
    CHARGE:  cpu time      0.7653: real time      0.7638
    --------------------------------------------
      LOOP:  cpu time     24.4885: real time     24.5129

 eigenvalue-minimisations  :     0
 total energy-change (2. order) :-0.1743711E+02  (-0.1828598E+02)
 number of electron     220.0000000 magnetization 
 augmentation part       48.3784174 magnetization 

 Free energy of the ion-electron system (eV)
  ---------------------------------------------------
  alpha Z        PSCENC =        34.75568252
  Ewald energy   TEWEN  =     30406.64970555
  -Hartree energ DENC   =    -44817.45816965
  -exchange      EXHF   =         0.00000000
  -V(xc)+E(xc)   XCENC  =       401.73075862
  PAW double counting   =     62022.92497846   -62859.93754819
  entropy T*S    EENTRO =         0.00000000
  eigenvalues    EBANDS =     -3255.02631271
  atomic energy  EATOM  =     18521.66644781
  ---------------------------------------------------
  free energy    TOTEN  =       455.30554242 eV

  energy without entropy =      455.30554242  energy(sigma->0) =      455.30554242


--------------------------------------------------------------------------------------------------------




--------------------------------------- Iteration      1(  30)  ---------------------------------------


    POTLOK:  cpu time      3.7370: real time      3.7414
    SETDIJ:  cpu time      4.7785: real time      4.7819
    TRIAL :  cpu time      4.5923: real time      4.5960
    CORREC:  cpu time     10.5907: real time     10.5983
    CHARGE:  cpu time      0.7720: real time      0.7713
    --------------------------------------------
      LOOP:  cpu time     24.4731: real time     24.4999

 eigenvalue-minimisations  :     0
 total energy-change (2. order) :-0.1243534E+02  (-0.3339912E+02)
 number of electron     220.0000000 magnetization 
 augmentation part       49.1498141 magnetization 

 Free energy of the ion-electron system (eV)
  ---------------------------------------------------
  alpha Z        PSCENC =        34.75568252
  Ewald energy   TEWEN  =     30406.64970555
  -Hartree energ DENC   =    -44147.61340198
  -exchange      EXHF   =         0.00000000
  -V(xc)+E(xc)   XCENC  =       393.80307677
  PAW double counting   =     57133.72145831   -57964.82649722
  entropy T*S    EENTRO =         0.00000000
  eigenvalues    EBANDS =     -3935.28626603
  atomic energy  EATOM  =     18521.66644781
  ---------------------------------------------------
  free energy    TOTEN  =       442.87020573 eV

  energy without entropy =      442.87020573  energy(sigma->0) =      442.87020573


--------------------------------------------------------------------------------------------------------




--------------------------------------- Iteration      1(  31)  ---------------------------------------


    POTLOK:  cpu time      3.7394: real time      3.7432
    SETDIJ:  cpu time      4.7739: real time      4.7774
    TRIAL :  cpu time      4.5937: real time      4.5972
    CORREC:  cpu time     10.5933: real time     10.6012
    CHARGE:  cpu time      0.7671: real time      0.7667
    --------------------------------------------
      LOOP:  cpu time     24.4701: real time     24.4962

 eigenvalue-minimisations  :     0
 total energy-change (2. order) :-0.3399064E+02  (-0.1247734E+02)
 number of electron     219.9999999 magnetization 
 augmentation part       57.9235824 magnetization 

 Free energy of the ion-electron system (eV)
  ---------------------------------------------------
  alpha Z        PSCENC =        34.75568252
  Ewald energy   TEWEN  =     30406.64970555
  -Hartree energ DENC   =    -43913.03703491
  -exchange      EXHF   =         0.00000000
  -V(xc)+E(xc)   XCENC  =       396.46836069
  PAW double counting   =     59315.26763155   -60152.42585430
  entropy T*S    EENTRO =         0.00000000
  eigenvalues    EBANDS =     -4200.46537710
  atomic energy  EATOM  =     18521.66644781
  ---------------------------------------------------
  free energy    TOTEN  =       408.87956181 eV

  energy without entropy =      408.87956181  energy(sigma->0) =      408.87956181


--------------------------------------------------------------------------------------------------------




--------------------------------------- Iteration      1(  32)  ---------------------------------------


    POTLOK:  cpu time      3.7403: real time      3.7429
    SETDIJ:  cpu time      4.7780: real time      4.7814
    TRIAL :  cpu time      4.5893: real time      4.5928
    CORREC:  cpu time     10.6032: real time     10.6118
    CHARGE:  cpu time      0.7733: real time      0.7729
    --------------------------------------------
      LOOP:  cpu time     24.4875: real time     24.5135

 eigenvalue-minimisations  :     0
 total energy-change (2. order) : 0.5964216E+03  (-0.1507489E+03)
 number of electron     219.9999999 magnetization 
 augmentation part       57.8206438 magnetization 

 Free energy of the ion-electron system (eV)
  ---------------------------------------------------
  alpha Z        PSCENC =        34.75568252
  Ewald energy   TEWEN  =     30406.64970555
  -Hartree energ DENC   =    -40717.19126200
  -exchange      EXHF   =         0.00000000
  -V(xc)+E(xc)   XCENC  =       376.68941908
  PAW double counting   =     80321.20688503   -81128.43361613
  entropy T*S    EENTRO =        -0.00000000
  eigenvalues    EBANDS =     -6810.04213964
  atomic energy  EATOM  =     18521.66644781
  ---------------------------------------------------
  free energy    TOTEN  =      1005.30112223 eV

  energy without entropy =     1005.30112223  energy(sigma->0) =     1005.30112223


--------------------------------------------------------------------------------------------------------




--------------------------------------- Iteration      1(  33)  ---------------------------------------


    POTLOK:  cpu time      3.7368: real time      3.7429
    SETDIJ:  cpu time      4.7806: real time      4.7841
    TRIAL :  cpu time      4.6024: real time      4.6069
    CORREC:  cpu time     10.5774: real time     10.5858
    CHARGE:  cpu time      0.7706: real time      0.7701
    --------------------------------------------
      LOOP:  cpu time     24.4720: real time     24.5018

 eigenvalue-minimisations  :     0
 total energy-change (2. order) :-0.1483944E+03  (-0.2041388E+02)
 number of electron     219.9999999 magnetization 
 augmentation part       57.8320970 magnetization 

 Free energy of the ion-electron system (eV)
  ---------------------------------------------------
  alpha Z        PSCENC =        34.75568252
  Ewald energy   TEWEN  =     30406.64970555
  -Hartree energ DENC   =    -42753.70232017
  -exchange      EXHF   =         0.00000000
  -V(xc)+E(xc)   XCENC  =       392.37292809
  PAW double counting   =     88061.00818152   -88882.06964609
  entropy T*S    EENTRO =        -0.00000000
  eigenvalues    EBANDS =     -4923.77424404
  atomic energy  EATOM  =     18521.66644781
  ---------------------------------------------------
  free energy    TOTEN  =       856.90673520 eV

  energy without entropy =      856.90673520  energy(sigma->0) =      856.90673520


--------------------------------------------------------------------------------------------------------




--------------------------------------- Iteration      1(  34)  ---------------------------------------


    POTLOK:  cpu time      3.7405: real time      3.7467
    SETDIJ:  cpu time      4.7775: real time      4.7818
    TRIAL :  cpu time      4.5967: real time      4.6001
    CORREC:  cpu time     10.3082: real time     10.3147
    CHARGE:  cpu time      0.7694: real time      0.7700
    --------------------------------------------
      LOOP:  cpu time     24.1955: real time     24.2248

 eigenvalue-minimisations  :     0
 total energy-change (2. order) :-0.2090893E+02  ( 0.8643390E+01)
 number of electron     219.9999999 magnetization 
 augmentation part       58.4989911 magnetization 

 Free energy of the ion-electron system (eV)
  ---------------------------------------------------
  alpha Z        PSCENC =        34.75568252
  Ewald energy   TEWEN  =     30406.64970555
  -Hartree energ DENC   =    -43484.24753209
  -exchange      EXHF   =         0.00000000
  -V(xc)+E(xc)   XCENC  =       397.90045847
  PAW double counting   =     89936.87245478   -90759.10300308
  entropy T*S    EENTRO =        -0.00000000
  eigenvalues    EBANDS =     -4218.49641247
  atomic energy  EATOM  =     18521.66644781
  ---------------------------------------------------
  free energy    TOTEN  =       835.99780150 eV

  energy without entropy =      835.99780150  energy(sigma->0) =      835.99780150


--------------------------------------------------------------------------------------------------------




--------------------------------------- Iteration      1(  35)  ---------------------------------------


    POTLOK:  cpu time      3.7365: real time      3.7396
    SETDIJ:  cpu time      4.7749: real time      4.7792
    TRIAL :  cpu time      4.7540: real time      4.7577
    CORREC:  cpu time     10.3285: real time     10.3361
    CHARGE:  cpu time      0.7635: real time      0.7642
    --------------------------------------------
      LOOP:  cpu time     24.3601: real time     24.3874

 eigenvalue-minimisations  :     0
 total energy-change (2. order) :-0.3641677E+02  ( 0.3637249E+02)
 number of electron     219.9999999 magnetization 
 augmentation part       59.0956519 magnetization 

 Free energy of the ion-electron system (eV)
  ---------------------------------------------------
  alpha Z        PSCENC =        34.75568252
  Ewald energy   TEWEN  =     30406.64970555
  -Hartree energ DENC   =    -43855.34411676
  -exchange      EXHF   =         0.00000000
  -V(xc)+E(xc)   XCENC  =       402.37740955
[...]
  entropy T*S    EENTRO =        -0.00000000
  eigenvalues    EBANDS =     -1651.25772229
  atomic energy  EATOM  =     18521.66644781
  ---------------------------------------------------
  free energy    TOTEN  =      -817.46043061 eV

  energy without entropy =     -817.46043061  energy(sigma->0) =     -817.46043061


--------------------------------------------------------------------------------------------------------


  average scaling for gradient   0.5427


 average (electrostatic) potential at core
  the test charge radii are     1.2098
  (the norm of the test charge is              1.0000)
       1 -82.0311       2 -82.3082       3 -82.1317       4 -81.5991       5 -81.6825
       6 -82.1309       7 -82.1970       8 -81.7042       9 -81.7863      10 -82.1725
      11 -82.1780      12 -81.7944      13 -81.3458      14 -81.6750      15 -81.7808
      16 -81.5760      17 -81.4047      18 -81.7554      19 -81.6888      20 -81.5399
 
 
 
 E-fermi :  -4.7230     XC(G=0):  -0.7554     alpha+bet : -0.3543

 Fermi energy:        -4.7229714244

 k-point     1 :       0.0000    0.0000    0.0000
  band No.  band energies     occupation 
      1     -11.1468      2.00000
      2     -10.3645      2.00000
      3     -10.3264      2.00000
      4     -10.2881      2.00000
      5     -10.2348      2.00000
      6     -10.1469      2.00000
      7      -9.8778      2.00000
      8      -9.7651      2.00000
      9      -9.6767      2.00000
     10      -9.5779      2.00000
     11      -9.5433      2.00000
     12      -9.4358      2.00000
     13      -9.3892      2.00000
     14      -9.2791      2.00000
     15      -9.1270      2.00000
     16      -9.0482      2.00000
     17      -8.9600      2.00000
     18      -8.8856      2.00000
     19      -8.7572      2.00000
     20      -8.7303      2.00000
     21      -8.7138      2.00000
     22      -8.6787      2.00000
     23      -8.6063      2.00000
     24      -8.5842      2.00000
     25      -8.5444      2.00000
     26      -8.5084      2.00000
     27      -8.4928      2.00000
     28      -8.4419      2.00000
     29      -8.3319      2.00000
     30      -8.3101      2.00000
     31      -8.2578      2.00000
     32      -8.2237      2.00000
     33      -8.1849      2.00000
     34      -8.1148      2.00000
     35      -8.0927      2.00000
     36      -8.0633      2.00000
     37      -8.0176      2.00000
     38      -7.9539      2.00000
     39      -7.8970      2.00000
     40      -7.8577      2.00000
     41      -7.8040      2.00000
     42      -7.6953      2.00000
     43      -7.6681      2.00000
     44      -7.6041      2.00000
     45      -7.5731      2.00000
     46      -7.5000      2.00000
     47      -7.4578      2.00000
     48      -7.4457      2.00000
     49      -7.3976      2.00000
     50      -7.3702      2.00000
     51      -7.3192      2.00000
     52      -7.2934      2.00000
     53      -7.2418      2.00000
     54      -7.2172      2.00000
     55      -7.2056      2.00000
     56      -7.1673      2.00000
     57      -7.1571      2.00000
     58      -7.1046      2.00000
     59      -7.0799      2.00000
     60      -7.0508      2.00000
     61      -7.0417      2.00000
     62      -7.0100      2.00000
     63      -6.9731      2.00000
     64      -6.9575      2.00000
     65      -6.9160      2.00000
     66      -6.9014      2.00000
     67      -6.8846      2.00000
     68      -6.8531      2.00000
     69      -6.8109      2.00000
     70      -6.8013      2.00000
     71      -6.7867      2.00000
     72      -6.7702      2.00000
     73      -6.7626      2.00000
     74      -6.7394      2.00000
     75      -6.7242      2.00000
     76      -6.7067      2.00000
     77      -6.6719      2.00000
     78      -6.6470      2.00000
     79      -6.6241      2.00000
     80      -6.6163      2.00000
     81      -6.6032      2.00000
     82      -6.5857      2.00000
     83      -6.5741      2.00000
     84      -6.5402      2.00000
     85      -6.5354      2.00000
     86      -6.5003      2.00000
     87      -6.4890      2.00000
     88      -6.4767      2.00000
     89      -6.4513      2.00000
     90      -6.4416      2.00000
     91      -6.4053      2.00000
     92      -6.3666      2.00000
     93      -6.3556      2.00000
     94      -6.3229      2.00000
     95      -6.2988      2.00000
     96      -6.2657      2.00000
     97      -6.2150      2.00000
     98      -6.1830      2.00000
     99      -6.1517      2.00000
    100      -6.0619      2.00000
    101      -5.9861      2.00000
    102      -5.9347      2.00000
    103      -5.8903      2.00000
    104      -5.7348      2.00000
    105      -5.7004      2.00000
    106      -5.6073      2.00000
    107      -5.5364      2.00000
    108      -5.3661      2.00000
    109      -5.0735      2.00000
    110      -4.9878      2.00000
    111      -3.9904      0.00000
    112      -3.9313      0.00000
    113      -3.8670      0.00000
    114      -3.2312      0.00000
    115      -2.8210      0.00000
    116      -2.3911      0.00000
    117      -2.3180      0.00000
    118      -2.1437      0.00000
    119      -2.0981      0.00000
    120      -1.7020      0.00000
    121      -1.4424      0.00000
    122      -1.2789      0.00000
    123      -1.2404      0.00000
    124      -1.1538      0.00000
    125      -0.8781      0.00000
    126      -0.7596      0.00000
    127      -0.5714      0.00000
    128      -0.5245      0.00000
    129      -0.4181      0.00000
    130      -0.3139      0.00000
    131      -0.1993      0.00000
    132      -0.0880      0.00000
    133      -0.0290      0.00000
    134       0.0355      0.00000
    135       0.1279      0.00000
    136       0.1788      0.00000
    137       0.2291      0.00000
    138       0.2947      0.00000
    139       0.3092      0.00000
    140       0.3567      0.00000
    141       0.3937      0.00000
    142       0.4227      0.00000
    143       0.4750      0.00000
    144       0.5552      0.00000
    145       0.5855      0.00000
    146       0.6262      0.00000
    147       0.6441      0.00000
    148       0.6977      0.00000
    149       0.7367      0.00000
    150       0.7522      0.00000
    151       0.8098      0.00000
    152       0.8545      0.00000
    153       0.8977      0.00000
    154       0.9021      0.00000
    155       0.9055      0.00000
    156       0.9482      0.00000
    157       0.9762      0.00000
    158       1.0122      0.00000
    159       1.0679      0.00000
    160       1.1059      0.00000
    161       1.1158      0.00000
    162       1.1498      0.00000
    163       1.1773      0.00000
    164       1.1878      0.00000
    165       1.2634      0.00000
    166       1.3176      0.00000
    167       1.3228      0.00000
    168       1.3615      0.00000
    169       1.4293      0.00000
    170       1.4394      0.00000
    171       1.4879      0.00000
    172       1.5042      0.00000
    173       1.5060      0.00000
    174       1.5503      0.00000
    175       1.5513      0.00000
    176       1.6176      0.00000
    177       1.6214      0.00000
    178       1.6842      0.00000
    179       1.7195      0.00000
    180       1.7295      0.00000
    181       1.7388      0.00000
    182       1.8140      0.00000
    183       1.8246      0.00000
    184       1.8351      0.00000
    185       1.8740      0.00000
    186       1.8769      0.00000
    187       1.9233      0.00000
    188       1.9335      0.00000
    189       1.9480      0.00000
    190       2.1686      0.00000
    191       2.1836      0.00000
    192       2.2852      0.00000


--------------------------------------------------------------------------------------------------------


 soft charge-density along one line, spin component           1
         0         1         2         3         4         5         6         7         8         9
 total charge-density along one line
 
 pseudopotential strength for first ion, spin component:           1
 -9.577   0.004   0.001   0.005   0.006  -9.697   0.004   0.001
  0.004  -9.504   0.003  -0.001  -0.003   0.004  -9.625   0.003
  0.001   0.003  -9.459   0.001  -0.009   0.001   0.003  -9.581
  0.005  -0.001   0.001  -9.489   0.000   0.005  -0.001   0.001
  0.006  -0.003  -0.009   0.000  -9.601   0.006  -0.003  -0.009
 -9.697   0.004   0.001   0.005   0.006  -9.801   0.004   0.001
  0.004  -9.625   0.003  -0.001  -0.003   0.004  -9.730   0.003
  0.001   0.003  -9.581   0.001  -0.009   0.001   0.003  -9.687
  0.005  -0.001   0.001  -9.610   0.000   0.005  -0.001   0.001
  0.006  -0.003  -0.009   0.000  -9.719   0.005  -0.003  -0.009
  0.002  -0.003  -0.045  -0.003  -0.013   0.002  -0.003  -0.043
  0.003  -0.004  -0.067  -0.004  -0.020   0.003  -0.004  -0.065
 -0.008  -0.002   0.000   0.001  -0.002  -0.008  -0.003   0.000
  0.001  -0.000  -0.003   0.002   0.000   0.001  -0.001  -0.003
 -0.003   0.001   0.003  -0.002   0.004  -0.004   0.001   0.003
 -0.008  -0.002   0.000   0.000  -0.002  -0.008  -0.002   0.000
  0.000  -0.000  -0.002   0.002   0.000   0.001  -0.000  -0.002
 -0.003   0.000   0.004  -0.002   0.003  -0.003   0.001   0.004
 total augmentation occupancy for first ion, spin component:           1
  3.796  -0.154  -0.018   0.039  -0.258  -1.964   0.142   0.037  -0.021   0.138  -0.150   0.054   0.169  -0.005   0.000  -0.017
 -0.154   4.246  -0.020   0.016  -0.058   0.144  -1.709   0.012  -0.019   0.027   0.124  -0.042  -0.039  -0.006   0.005  -0.002
 -0.018  -0.020   4.269   0.033   0.270   0.036   0.012  -1.762  -0.034  -0.363   2.533  -0.975   0.009   0.008  -0.086  -0.000
  0.039   0.016   0.033   3.931   0.015  -0.020  -0.019  -0.034  -1.330   0.014   0.166  -0.068   0.024   0.010  -0.015  -0.000
 -0.258  -0.058   0.270   0.015   4.824   0.138   0.026  -0.364   0.015  -2.578   0.965  -0.344   0.025  -0.015   0.136  -0.002
 -1.964   0.144   0.036  -0.020   0.138   1.965  -0.134  -0.051   0.006  -0.041   0.136  -0.053  -0.106  -0.004   0.022   0.008
  0.142  -1.709   0.012  -0.019   0.026  -0.134   1.166  -0.005   0.021  -0.003  -0.106   0.035   0.041   0.006  -0.013  -0.002
  0.037   0.012  -1.762  -0.034  -0.364  -0.051  -0.005   1.242   0.034   0.440  -2.198   0.860  -0.011  -0.004   0.076   0.001
 -0.021  -0.019  -0.034  -1.330   0.015   0.006   0.021   0.034   0.736  -0.037  -0.146   0.062  -0.026  -0.017   0.020   0.001
  0.138   0.027  -0.363   0.014  -2.578  -0.041  -0.003   0.440  -0.037   2.250  -0.910   0.350  -0.007   0.010  -0.157   0.001
 -0.150   0.124   2.533   0.166   0.965   0.136  -0.106  -2.198  -0.146  -0.910   5.902  -2.186   0.019   0.028  -0.074  -0.003
  0.054  -0.042  -0.975  -0.068  -0.344  -0.053   0.035   0.860   0.062   0.350  -2.186   0.821  -0.009  -0.011   0.044   0.001
  0.169  -0.039   0.009   0.024   0.025  -0.106   0.041  -0.011  -0.026  -0.007   0.019  -0.009   0.223  -0.002   0.010  -0.015
 -0.005  -0.006   0.008   0.010  -0.015  -0.004   0.006  -0.004  -0.017   0.010   0.028  -0.011  -0.002   0.028  -0.006   0.000
  0.000   0.005  -0.086  -0.015   0.136   0.022  -0.013   0.076   0.020  -0.157  -0.074   0.044   0.010  -0.006   0.112  -0.001
 -0.017  -0.002  -0.000  -0.000  -0.002   0.008  -0.002   0.001   0.001   0.001  -0.003   0.001  -0.015   0.000  -0.001   0.001
  0.001  -0.001  -0.005  -0.000   0.001   0.000  -0.000   0.002   0.001  -0.000  -0.005   0.002   0.000  -0.002   0.000  -0.000
 -0.003   0.001   0.011  -0.002  -0.004  -0.001   0.000  -0.007  -0.001   0.009   0.011  -0.005  -0.001   0.000  -0.007   0.000


------------------------ aborting loop because EDIFF is reached ----------------------------------------


    FORLOC:  cpu time      0.0844: real time      0.0852
    FORNL :  cpu time      0.5331: real time      0.5331
    STRESS:  cpu time     12.5599: real time     12.5659
    FORCOR:  cpu time      1.4909: real time      1.4921
    OFIELD:  cpu time      0.0005: real time      0.0005

  FORCE on cell =-STRESS in cart. coord.  units (eV):
  Direction    XX          YY          ZZ          XY          YZ          ZX
  --------------------------------------------------------------------------------------
  Alpha Z    34.75568    34.75568    34.75568
  Ewald   26012.57652 27384.92757-22990.86808   432.82768  -347.78138   612.20504
  Hartree 30329.28410 31761.74571-13978.83265   383.93553  -282.06765   509.32866
  E(xc)   -1057.94073 -1058.22594 -1066.29456     0.06305    -0.09937     0.09736
  Local  -59666.63628-62484.20739 33432.19430  -815.85532   625.89654 -1118.30547
  n-local   -18.80687   -12.67518    44.67927    -1.77012     1.16461    -0.36887
  augment  1337.85525  1338.92137  1377.46900    -0.43164     0.73551    -0.66151
  Kinetic  3036.05102  3041.65035  3146.78950    -2.19039     1.86915    -1.88197
  Fock        0.00000     0.00000     0.00000     0.00000     0.00000     0.00000
  -------------------------------------------------------------------------------------
  Total       7.13870     6.89216    -0.10754    -3.42122    -0.28259     0.41323
  in kB       0.85319     0.82372    -0.01285    -0.40889    -0.03377     0.04939
  external pressure =        0.55 kB  Pullay stress =        0.00 kB


 VOLUME and BASIS-vectors are now :
 -----------------------------------------------------------------------------
  energy-cutoff  :      520.00
  volume of cell :    13405.53
      direct lattice vectors                 reciprocal lattice vectors
    21.138852197  0.000000000  0.000000000     0.047306258  0.000000000  0.000000000
     0.000000000 21.138852197  0.000000000     0.000000000  0.047306258  0.000000000
     0.000000000  0.000000000 30.000000000     0.000000000  0.000000000  0.033333333

  length of vectors
    21.138852197 21.138852197 30.000000000     0.047306258  0.047306258  0.033333333


 FORCES acting on ions:
    Electron-Ion                     Ewald-Force                    Non-Local-Force
 -----------------------------------------------------------------------------------------------
   -.533E+03 0.650E+02 0.125E+02   0.533E+03 -.649E+02 -.121E+02   -.731E+00 -.131E+00 -.182E+00
   -.199E+02 0.732E+01 -.110E+03   0.183E+02 -.714E+01 0.110E+03   0.171E+01 -.299E+00 -.470E-01
   0.385E+03 -.524E+02 -.239E+03   -.384E+03 0.522E+02 0.239E+03   -.954E+00 0.124E+00 0.367E+00
   0.830E+03 -.116E+03 0.185E+03   -.826E+03 0.116E+03 -.183E+03   -.428E+01 0.840E+00 -.137E+01
   -.697E+03 0.437E+02 0.117E+02   0.695E+03 -.435E+02 -.119E+02   0.223E+01 -.348E+00 0.105E-01
   -.207E+03 -.212E+03 -.107E+03   0.206E+03 0.211E+03 0.108E+03   0.419E+00 0.140E+01 -.151E+00
   0.196E+03 -.329E+03 -.299E+03   -.196E+03 0.327E+03 0.299E+03   -.224E+00 0.176E+01 0.560E+00
   0.620E+03 -.470E+03 0.242E+03   -.618E+03 0.470E+03 -.240E+03   -.198E+01 0.117E+01 -.132E+01
   -.722E+03 0.144E+03 -.120E+03   0.720E+03 -.144E+03 0.119E+03   0.258E+01 -.550E+00 0.745E+00
   -.137E+03 0.248E+03 -.140E+02   0.136E+03 -.246E+03 0.144E+02   0.596E+00 -.160E+01 -.433E+00
   0.228E+03 0.266E+03 -.923E+02   -.227E+03 -.265E+03 0.924E+02   -.873E+00 -.145E+01 0.361E-01
   0.736E+03 0.303E+03 0.203E+02   -.734E+03 -.302E+03 -.202E+02   -.260E+01 -.593E+00 -.226E+00
   -.656E+03 -.357E+03 0.167E+03   0.651E+03 0.355E+03 -.165E+03   0.531E+01 0.243E+01 -.168E+01
   -.314E+03 -.665E+03 0.275E+01   0.313E+03 0.664E+03 -.248E+01   0.109E+01 0.140E+01 -.269E+00
   -.236E+02 -.779E+03 -.201E+03   0.251E+02 0.778E+03 0.200E+03   -.147E+01 0.187E+01 0.125E+01
   0.329E+03 -.749E+03 0.317E+03   -.329E+03 0.746E+03 -.315E+03   -.717E+00 0.351E+01 -.266E+01
   -.545E+03 0.505E+03 0.315E+03   0.543E+03 -.503E+03 -.311E+03   0.341E+01 -.316E+01 -.403E+01
   -.159E+03 0.720E+03 -.257E+03   0.158E+03 -.719E+03 0.255E+03   0.996E+00 -.140E+01 0.177E+01
   0.151E+03 0.755E+03 0.643E+02   -.150E+03 -.754E+03 -.633E+02   -.135E+01 -.165E+01 -.889E+00
   0.538E+03 0.675E+03 0.112E+03   -.536E+03 -.671E+03 -.111E+03   -.204E+01 -.394E+01 -.675E+00
 -----------------------------------------------------------------------------------------------
   -.118E+01 0.612E+00 0.918E+01   0.000E+00 -.227E-12 -.142E-12   0.112E+01 -.613E+00 -.919E+01
 
 
 POSITION                                       TOTAL-FORCE (eV/Angst)
 -----------------------------------------------------------------------------------
     11.09519      9.45482     18.11852        -0.096387     -0.024880      0.183976
      8.29301      9.75878     18.32361         0.053616     -0.106329      0.211497
      5.56783     10.06397     18.32381         0.110943     -0.111625     -0.111850
      2.99555     10.31153     17.42772        -0.048286      0.291078      0.012440
     12.60980     11.66864     17.97165         0.162329     -0.091535     -0.130799
      9.91561     11.91931     18.29835         0.191816      0.129680      0.069910
      7.23924     12.25095     18.45349         0.060665     -0.061522     -0.111470
      4.70923     12.46418     17.40695        -0.270441      0.287142     -0.002716
     11.97817      6.94163     18.23352         0.313018      0.017158     -0.218291
      9.33064      7.28957     18.17027        -0.015459     -0.084045      0.037455
      6.66947      7.54260     18.19330        -0.084819     -0.019489      0.076201
      3.98913      7.86207     17.88644        -0.279443     -0.034571     -0.113589
     14.03302     13.88852     17.41118        -0.055962     -0.150161      0.075933
     11.45387     14.17698     18.01115         0.167437      0.233663      0.011667
      8.87221     14.48562     18.39654         0.075508      0.203488      0.050164
      6.46511     14.54646     17.26643        -0.568556      0.186372     -0.091152
     12.47854      4.55951     17.16313         0.493018     -0.195201     -0.016356
     10.20822      4.73313     18.45875        -0.096540     -0.229372     -0.102672
      7.64038      5.02502     17.96040        -0.098991     -0.132400      0.100060
      4.97030      5.39304     17.71892        -0.013467     -0.107450      0.069590
 -----------------------------------------------------------------------------------
    total drift:                               -0.060085     -0.000663     -0.007349


--------------------------------------------------------------------------------------------------------



  FREE ENERGIE OF THE ION-ELECTRON SYSTEM (eV)
  ---------------------------------------------------
  free  energy   TOTEN  =      -817.46043061 eV

  energy  without entropy=     -817.46043061  energy(sigma->0) =     -817.46043061
 


--------------------------------------------------------------------------------------------------------


    POTLOK:  cpu time      6.4132: real time      6.4183


--------------------------------------------------------------------------------------------------------


     LOOP+:  cpu time   3174.8368: real time   3178.2735
    4ORBIT:  cpu time      0.0000: real time      0.0000

 total amount of memory used by VASP MPI-rank0   220736. kBytes
=======================================================================

   base      :      30000. kBytes
   nonlr-proj:       6988. kBytes
   fftplans  :      51223. kBytes
   grid      :     119428. kBytes
   one-center:         77. kBytes
   wavefun   :      13020. kBytes
 
  
  
 General timing and accounting informations for this job:
 ========================================================
  
                  Total CPU time used (sec):     3204.114
                            User time (sec):     3156.550
                          System time (sec):       47.563
                         Elapsed time (sec):     3208.707
  
                   Maximum memory used (kb):     1123784.
                   Average memory used (kb):          N/A
  
                          Minor page faults:       150090
                          Major page faults:            0
                 Voluntary context switches:        42550
