 **********************************************************************
                          MRCC program system
 **********************************************************************
 
                              Written by
     Mihaly Kallay, Peter R. Nagy, David Mester, Laszlo Gyevi-Nagy,
        Jozsef Csoka, P. Bernat Szabo, Zoltan Rolik, Gyula Samu,
     Jozsef Csontos, Bence Hegely, Adam Ganyecz, Istvan Ladjanszki,
       Lorant Szegedy, Bence Ladoczki, Klara Petrov, Mate Farkas,
                    Pal D. Mezei, and Reka A. Horvath
 
        Department of Physical Chemistry and Materials Science
            Budapest University of Technology and Economics
                  Budapest P.O.Box 91, H-1521 Hungary
 
                              www.mrcc.hu
 
                      Release date: March 18, 2022

 ************************ 2022-11-01 10:24:54 *************************
 Executing minp...

 Reading input from MINP...
 
 Input file:
 
calc=DF-CCSD(T)
verbosity=3
mem=150GB
symm=off
unit=angs
scfiguess=small
scfalg=locfit1
lcorthr=tight
ccmaxit=400
ccsdalg=dfdirect
ccsdthreads=4
ccsdmkl=thr
ptthreads=4
ECP=MCDHF-ECP-60
basis=bse_ACVQZ
basis_sm=def2-SVP
dfbasis_scf=def2-QZVPP-RI-JK
dfbasis_cor=bse_ACVQZ_mp2fit
core=0
unit=angs
geom=xyz
    4
Au4
Au     0.58885852     0.39545018     1.09613554
Au    -0.59271424    -0.39135590    -1.09567895
Au    -1.34131629    -1.43664851     1.23837741
Au     1.34131629     1.43664851    -1.23837741
 
 
 Checking keyword combinations...
 
 Keywords:
 
 active=none
 agrid=ld0006-ld0590
 agrid_pssp=ld0006-ld0194
 agrid_pssp_sm=ld0006-ld0074
 basis=bse_acvqz
 basis_sm=def2-svp
 basopt=off
 bfbasis=none
 bfgsmem=10
 bfgstol=1.0d-3
 bpcompo=0.985
 bpcompv=0.98
 bpdfo=0.985
 bpocc=0.985
 bppdo=0.985
 bppdv=0.98
 bpedo=0.985
 bpedv=0.98
 calc=ccsd(t)
 ccmaxit=400
 ccprog=ccsd
 ccsdalg=dfdirect
 ccsdmkl=thr
 ccsdrest=trf
 ccsdthreads=4
 cctol=6
 charge=0
 cialg=auto
 ciguess=off
 cmpgrp=auto
 comprest=off
 core=corr
 corembed=off
 csapprox=off
 cvs=off
 dboc=off
 delocsomofact=
 dendec=cholesky
 dens=0
 dfalg=lineq
 dfbasis_cab=none
 dfbasis_cor=bse_acvqz_mp2fit
 dfbasis_scf=def2-qzvpp-ri-jk
 dfbasis_scf_sm=def2-qzvpp-ri-jk
 dfintran=drpa
 dft=off
 dhexc=adc(2)
 diag=david
 docc=
 domrad=10.d0
 drpaalg=fit
 dual=off
 dual_df=off
 ecp=mcdhf-ecp-60
 edisp=off
 edisp_embed=off
 embed=off
 etemp=300
 epert=none
 eps=
 espcharge=off
 excrad=1.0
 excrad_fin=0.100000000D-02
 fitting=coulomb
 fmm=off
 fmmord=8
 freq=off
 gamma=1.d0
 gauss=spher
 geom=xyz
 gopt=off
 ghost=none
 gtol=7
 grdens=off
 gridbatch_cos=2000
 grtol=10
 guido_ct=off
 hamilton=dc
 iface=none
 intalg=auto
 itol=10
 laptol=1.d-3
 lccoporder=trffirst
 lcorthr=tight
 lccrest=off
 lmp2dens=on
 lnoepso=0.d0
 lnoepsv=5e-5
 boysalg=jacobi
 localcc=off
 localcorrsymm=off
 locintrf=disk
 mact=
 maxact=off
 maxdim=100
 maxex=0
 maxmicroit=100
 mcscfiguess=hf
 mem=150gb
 mmprog=
 molden=on
 mpitasks=1
 mulmet=0
 mult=
 nacto=0
 nactv=0
 naf_amp=1.d-2
 naf_cor=off
 naf_scf=off
 nafalg=albe
 naftyp=
 nchol=auto
 ndeps=1e-3
 nstate=1
 nsing=0
 nto=off
 ntrip=0
 occ=
 occri=off
 oniom=off
 oniom_eechg=off
 oniom_pcm=off
 oniom_qcorr=off
 optalg=
 optmaxit=50
 optetol=1e-6
 optex=0
 optgtol=1e-4
 optstol=1e-3
 orblocc=off
 orbloce=off
 orbloco=off
 orblocv=off
 orblocguess=cholesky
 osveps=1e-4
 ovirt=off
 ovltol=1e-7
 ovosnorb=80.0
 pcm=off
 popul=off
 pressure=100000
 pssp=off
 ptfreq=0.0
 ptthreads=4
 qro=off
 qscf=off
 qmmm=off
 redcost_exc=off
 redcost_tddft=off
 refdet=none
 rest=0
 rgrid=log3
 rism=off
 rohfcore=semicanonical
 rohftype=semicanonical
 scfalg=locfit1
 scf_conv=difficult
 scfdamp=0.0d0
 scfdamp_mode=off
 scfdamp_end=50
 scfdamp_dampstep=0.d0
 scfdamp_dtol=0.0d0
 scfdamp_maxfact=0.0d0
 scfdamp_minfact=0.0d0
 scfdiis=on
 scfdiis_dtol=0.0d0
 scfdiis_end=50
 scfdiis_start=2
 scfdiis_step=1
 scfdiis_watch=off
 scfdiis_wrange=10
 scfdiis_wlimit=5
 scfdiis_delmax=2
 scfdtol=7
 scfext=10
 scfguessdens=
 scfiguess=small
 scfloc=pm
 scflshift=0.20
 scflshift_end=8
 scflshift_dtol=0.0
 scflshift_gaptol=0.20
 scfmaxit=50
 scftype=
 scftol=6
 scspe=1.d0
 scsph=1.d0
 scsps=1.2d0
 scsps_t=1.2d0
 scspt=0.33333333333333
 scspt_t=0.33333333333333
 scspv=1.d0
 spairtol=1e-5
 sqmprog=
 subminp=top
 symm=0
 talg=occ
 temp=298.15
 test=off
 theodore=off
 tlmo=0.999
 tpao=0.94
 tprint=off
 uncontract=off
 unit=angs
 usedisk=2
 verbosity=3
 wpairtol=0.100000000E-06
 
 Calculating integrals for small-basis SCF...

 ************************ 2022-11-01 10:24:54 *************************
 Executing integ...

 Allocation of 150.0 Gbytes of memory...
 
 
 Number of atoms:                  4
 Charge:                           0
 Number of electrons:             76
 Number of core electrons:         0
 Spin multiplicity:                1
 
                 Cartesian coordinates [bohr]      Atomic mass [AMU]  Z
   1  Au    1.11278133    0.74729254    2.07139597   196.966543      79
   2  Au   -1.12006758   -0.73955547   -2.07053314   196.966543      79
   3  Au   -2.53472044   -2.71487222    2.34019414   196.966543      79
   4  Au    2.53472044    2.71487222   -2.34019414   196.966543      79
 
 This molecule is an asymmetric top.
 
 Rotational constants [cm-1]: 
      0.025101390069      0.007929541899      0.006025950083
 
 Point group: C1  
 Computational point group: C1  
 
 Cartesian coordinates in standard orientation [bohr]
   1  Au    0.00058418    2.46732219    0.00266499
   2  Au   -0.00052527   -2.46744293    0.00266473
   3  Au   -4.39000069    0.00037215   -0.00266483
   4  Au    4.38994177   -0.00025141   -0.00266490
 
 Nuclear repulsion energy [au]:        401.014549397316
 
 
 Basis set information:
 
 Maximum angular momentum: i
 Maximum number of contracted Gaussians:   13
 Maximum number of primitive Gaussians:    13
 Spherical harmonic GTOs are used.
 
 
 Conventional basis set:
 
   1  Au def2-svp [ 7s 6p 5d 1f | 6s 3p 2d 1f ]
   2  Au def2-svp [ 7s 6p 5d 1f | 6s 3p 2d 1f ]
   3  Au def2-svp [ 7s 6p 5d 1f | 6s 3p 2d 1f ]
   4  Au def2-svp [ 7s 6p 5d 1f | 6s 3p 2d 1f ]
 
 Basis functions:
            1             2             3             4             5             6             7             8             9            10
    0    1Au1s         1Au2s         1Au3s         1Au4s         1Au5s         1Au6s         1Au1pz        1Au1py        1Au1px        1Au2pz    
    1    1Au2py        1Au2px        1Au3pz        1Au3py        1Au3px        1Au1d-2       1Au1d-1       1Au1d0        1Au1d+1       1Au1d+2   
    2    1Au2d-2       1Au2d-1       1Au2d0        1Au2d+1       1Au2d+2       1Au1f-3       1Au1f-2       1Au1f-1       1Au1f0        1Au1f+1   
    3    1Au1f+2       1Au1f+3       2Au1s         2Au2s         2Au3s         2Au4s         2Au5s         2Au6s         2Au1pz        2Au1py    
    4    2Au1px        2Au2pz        2Au2py        2Au2px        2Au3pz        2Au3py        2Au3px        2Au1d-2       2Au1d-1       2Au1d0    
    5    2Au1d+1       2Au1d+2       2Au2d-2       2Au2d-1       2Au2d0        2Au2d+1       2Au2d+2       2Au1f-3       2Au1f-2       2Au1f-1   
    6    2Au1f0        2Au1f+1       2Au1f+2       2Au1f+3       3Au1s         3Au2s         3Au3s         3Au4s         3Au5s         3Au6s     
    7    3Au1pz        3Au1py        3Au1px        3Au2pz        3Au2py        3Au2px        3Au3pz        3Au3py        3Au3px        3Au1d-2   
    8    3Au1d-1       3Au1d0        3Au1d+1       3Au1d+2       3Au2d-2       3Au2d-1       3Au2d0        3Au2d+1       3Au2d+2       3Au1f-3   
    9    3Au1f-2       3Au1f-1       3Au1f0        3Au1f+1       3Au1f+2       3Au1f+3       4Au1s         4Au2s         4Au3s         4Au4s     
   10    4Au5s         4Au6s         4Au1pz        4Au1py        4Au1px        4Au2pz        4Au2py        4Au2px        4Au3pz        4Au3py    
   11    4Au3px        4Au1d-2       4Au1d-1       4Au1d0        4Au1d+1       4Au1d+2       4Au2d-2       4Au2d-1       4Au2d0        4Au2d+1   
   12    4Au2d+2       4Au1f-3       4Au1f-2       4Au1f-1       4Au1f0        4Au1f+1       4Au1f+2       4Au1f+3   
 
 Maximum number of basis functions per shell:   10
 Total number of basis functions:    128
 
 
 Fitting basis set for the SCF calculation:
 
   1  Au def2-qzvpp-ri-jk [ 13s 12p 11d 9f 5g 3h 2i | 13s 11p 10d 8f 4g 3h 2i ]
   2  Au def2-qzvpp-ri-jk [ 13s 12p 11d 9f 5g 3h 2i | 13s 11p 10d 8f 4g 3h 2i ]
   3  Au def2-qzvpp-ri-jk [ 13s 12p 11d 9f 5g 3h 2i | 13s 11p 10d 8f 4g 3h 2i ]
   4  Au def2-qzvpp-ri-jk [ 13s 12p 11d 9f 5g 3h 2i | 13s 11p 10d 8f 4g 3h 2i ]
 
 Basis functions:
            1             2             3             4             5             6             7             8             9            10
    0    1Au1s         1Au2s         1Au3s         1Au4s         1Au5s         1Au6s         1Au7s         1Au8s         1Au9s         1Au10s    
    1    1Au11s        1Au12s        1Au13s        1Au1pz        1Au1py        1Au1px        1Au2pz        1Au2py        1Au2px        1Au3pz    
    2    1Au3py        1Au3px        1Au4pz        1Au4py        1Au4px        1Au5pz        1Au5py        1Au5px        1Au6pz        1Au6py    
    3    1Au6px        1Au7pz        1Au7py        1Au7px        1Au8pz        1Au8py        1Au8px        1Au9pz        1Au9py        1Au9px    
    4    1Au10pz       1Au10py       1Au10px       1Au11pz       1Au11py       1Au11px       1Au1d-2       1Au1d-1       1Au1d0        1Au1d+1   
    5    1Au1d+2       1Au2d-2       1Au2d-1       1Au2d0        1Au2d+1       1Au2d+2       1Au3d-2       1Au3d-1       1Au3d0        1Au3d+1   
    6    1Au3d+2       1Au4d-2       1Au4d-1       1Au4d0        1Au4d+1       1Au4d+2       1Au5d-2       1Au5d-1       1Au5d0        1Au5d+1   
    7    1Au5d+2       1Au6d-2       1Au6d-1       1Au6d0        1Au6d+1       1Au6d+2       1Au7d-2       1Au7d-1       1Au7d0        1Au7d+1   
    8    1Au7d+2       1Au8d-2       1Au8d-1       1Au8d0        1Au8d+1       1Au8d+2       1Au9d-2       1Au9d-1       1Au9d0        1Au9d+1   
    9    1Au9d+2       1Au10d-2      1Au10d-1      1Au10d0       1Au10d+1      1Au10d+2      1Au1f-3       1Au1f-2       1Au1f-1       1Au1f0    
   10    1Au1f+1       1Au1f+2       1Au1f+3       1Au2f-3       1Au2f-2       1Au2f-1       1Au2f0        1Au2f+1       1Au2f+2       1Au2f+3   
   11    1Au3f-3       1Au3f-2       1Au3f-1       1Au3f0        1Au3f+1       1Au3f+2       1Au3f+3       1Au4f-3       1Au4f-2       1Au4f-1   
   12    1Au4f0        1Au4f+1       1Au4f+2       1Au4f+3       1Au5f-3       1Au5f-2       1Au5f-1       1Au5f0        1Au5f+1       1Au5f+2   
   13    1Au5f+3       1Au6f-3       1Au6f-2       1Au6f-1       1Au6f0        1Au6f+1       1Au6f+2       1Au6f+3       1Au7f-3       1Au7f-2   
   14    1Au7f-1       1Au7f0        1Au7f+1       1Au7f+2       1Au7f+3       1Au8f-3       1Au8f-2       1Au8f-1       1Au8f0        1Au8f+1   
   15    1Au8f+2       1Au8f+3       1Au1g-4       1Au1g-3       1Au1g-2       1Au1g-1       1Au1g0        1Au1g+1       1Au1g+2       1Au1g+3   
   16    1Au1g+4       1Au2g-4       1Au2g-3       1Au2g-2       1Au2g-1       1Au2g0        1Au2g+1       1Au2g+2       1Au2g+3       1Au2g+4   
   17    1Au3g-4       1Au3g-3       1Au3g-2       1Au3g-1       1Au3g0        1Au3g+1       1Au3g+2       1Au3g+3       1Au3g+4       1Au4g-4   
   18    1Au4g-3       1Au4g-2       1Au4g-1       1Au4g0        1Au4g+1       1Au4g+2       1Au4g+3       1Au4g+4       1Au1h-5       1Au1h-4   
   19    1Au1h-3       1Au1h-2       1Au1h-1       1Au1h0        1Au1h+1       1Au1h+2       1Au1h+3       1Au1h+4       1Au1h+5       1Au2h-5   
   20    1Au2h-4       1Au2h-3       1Au2h-2       1Au2h-1       1Au2h0        1Au2h+1       1Au2h+2       1Au2h+3       1Au2h+4       1Au2h+5   
   21    1Au3h-5       1Au3h-4       1Au3h-3       1Au3h-2       1Au3h-1       1Au3h0        1Au3h+1       1Au3h+2       1Au3h+3       1Au3h+4   
   22    1Au3h+5       1Au1i-6       1Au1i-5       1Au1i-4       1Au1i-3       1Au1i-2       1Au1i-1       1Au1i0        1Au1i+1       1Au1i+2   
   23    1Au1i+3       1Au1i+4       1Au1i+5       1Au1i+6       1Au2i-6       1Au2i-5       1Au2i-4       1Au2i-3       1Au2i-2       1Au2i-1   
   24    1Au2i0        1Au2i+1       1Au2i+2       1Au2i+3       1Au2i+4       1Au2i+5       1Au2i+6       2Au1s         2Au2s         2Au3s     
   25    2Au4s         2Au5s         2Au6s         2Au7s         2Au8s         2Au9s         2Au10s        2Au11s        2Au12s        2Au13s    
   26    2Au1pz        2Au1py        2Au1px        2Au2pz        2Au2py        2Au2px        2Au3pz        2Au3py        2Au3px        2Au4pz    
   27    2Au4py        2Au4px        2Au5pz        2Au5py        2Au5px        2Au6pz        2Au6py        2Au6px        2Au7pz        2Au7py    
   28    2Au7px        2Au8pz        2Au8py        2Au8px        2Au9pz        2Au9py        2Au9px        2Au10pz       2Au10py       2Au10px   
   29    2Au11pz       2Au11py       2Au11px       2Au1d-2       2Au1d-1       2Au1d0        2Au1d+1       2Au1d+2       2Au2d-2       2Au2d-1   
   30    2Au2d0        2Au2d+1       2Au2d+2       2Au3d-2       2Au3d-1       2Au3d0        2Au3d+1       2Au3d+2       2Au4d-2       2Au4d-1   
   31    2Au4d0        2Au4d+1       2Au4d+2       2Au5d-2       2Au5d-1       2Au5d0        2Au5d+1       2Au5d+2       2Au6d-2       2Au6d-1   
   32    2Au6d0        2Au6d+1       2Au6d+2       2Au7d-2       2Au7d-1       2Au7d0        2Au7d+1       2Au7d+2       2Au8d-2       2Au8d-1   
   33    2Au8d0        2Au8d+1       2Au8d+2       2Au9d-2       2Au9d-1       2Au9d0        2Au9d+1       2Au9d+2       2Au10d-2      2Au10d-1  
   34    2Au10d0       2Au10d+1      2Au10d+2      2Au1f-3       2Au1f-2       2Au1f-1       2Au1f0        2Au1f+1       2Au1f+2       2Au1f+3   
   35    2Au2f-3       2Au2f-2       2Au2f-1       2Au2f0        2Au2f+1       2Au2f+2       2Au2f+3       2Au3f-3       2Au3f-2       2Au3f-1   
   36    2Au3f0        2Au3f+1       2Au3f+2       2Au3f+3       2Au4f-3       2Au4f-2       2Au4f-1       2Au4f0        2Au4f+1       2Au4f+2   
   37    2Au4f+3       2Au5f-3       2Au5f-2       2Au5f-1       2Au5f0        2Au5f+1       2Au5f+2       2Au5f+3       2Au6f-3       2Au6f-2   
   38    2Au6f-1       2Au6f0        2Au6f+1       2Au6f+2       2Au6f+3       2Au7f-3       2Au7f-2       2Au7f-1       2Au7f0        2Au7f+1   
   39    2Au7f+2       2Au7f+3       2Au8f-3       2Au8f-2       2Au8f-1       2Au8f0        2Au8f+1       2Au8f+2       2Au8f+3       2Au1g-4   
   40    2Au1g-3       2Au1g-2       2Au1g-1       2Au1g0        2Au1g+1       2Au1g+2       2Au1g+3       2Au1g+4       2Au2g-4       2Au2g-3   
   41    2Au2g-2       2Au2g-1       2Au2g0        2Au2g+1       2Au2g+2       2Au2g+3       2Au2g+4       2Au3g-4       2Au3g-3       2Au3g-2   
   42    2Au3g-1       2Au3g0        2Au3g+1       2Au3g+2       2Au3g+3       2Au3g+4       2Au4g-4       2Au4g-3       2Au4g-2       2Au4g-1   
   43    2Au4g0        2Au4g+1       2Au4g+2       2Au4g+3       2Au4g+4       2Au1h-5       2Au1h-4       2Au1h-3       2Au1h-2       2Au1h-1   
   44    2Au1h0        2Au1h+1       2Au1h+2       2Au1h+3       2Au1h+4       2Au1h+5       2Au2h-5       2Au2h-4       2Au2h-3       2Au2h-2   
   45    2Au2h-1       2Au2h0        2Au2h+1       2Au2h+2       2Au2h+3       2Au2h+4       2Au2h+5       2Au3h-5       2Au3h-4       2Au3h-3   
   46    2Au3h-2       2Au3h-1       2Au3h0        2Au3h+1       2Au3h+2       2Au3h+3       2Au3h+4       2Au3h+5       2Au1i-6       2Au1i-5   
   47    2Au1i-4       2Au1i-3       2Au1i-2       2Au1i-1       2Au1i0        2Au1i+1       2Au1i+2       2Au1i+3       2Au1i+4       2Au1i+5   
   48    2Au1i+6       2Au2i-6       2Au2i-5       2Au2i-4       2Au2i-3       2Au2i-2       2Au2i-1       2Au2i0        2Au2i+1       2Au2i+2   
   49    2Au2i+3       2Au2i+4       2Au2i+5       2Au2i+6       3Au1s         3Au2s         3Au3s         3Au4s         3Au5s         3Au6s     
   50    3Au7s         3Au8s         3Au9s         3Au10s        3Au11s        3Au12s        3Au13s        3Au1pz        3Au1py        3Au1px    
   51    3Au2pz        3Au2py        3Au2px        3Au3pz        3Au3py        3Au3px        3Au4pz        3Au4py        3Au4px        3Au5pz    
   52    3Au5py        3Au5px        3Au6pz        3Au6py        3Au6px        3Au7pz        3Au7py        3Au7px        3Au8pz        3Au8py    
   53    3Au8px        3Au9pz        3Au9py        3Au9px        3Au10pz       3Au10py       3Au10px       3Au11pz       3Au11py       3Au11px   
   54    3Au1d-2       3Au1d-1       3Au1d0        3Au1d+1       3Au1d+2       3Au2d-2       3Au2d-1       3Au2d0        3Au2d+1       3Au2d+2   
   55    3Au3d-2       3Au3d-1       3Au3d0        3Au3d+1       3Au3d+2       3Au4d-2       3Au4d-1       3Au4d0        3Au4d+1       3Au4d+2   
   56    3Au5d-2       3Au5d-1       3Au5d0        3Au5d+1       3Au5d+2       3Au6d-2       3Au6d-1       3Au6d0        3Au6d+1       3Au6d+2   
   57    3Au7d-2       3Au7d-1       3Au7d0        3Au7d+1       3Au7d+2       3Au8d-2       3Au8d-1       3Au8d0        3Au8d+1       3Au8d+2   
   58    3Au9d-2       3Au9d-1       3Au9d0        3Au9d+1       3Au9d+2       3Au10d-2      3Au10d-1      3Au10d0       3Au10d+1      3Au10d+2  
   59    3Au1f-3       3Au1f-2       3Au1f-1       3Au1f0        3Au1f+1       3Au1f+2       3Au1f+3       3Au2f-3       3Au2f-2       3Au2f-1   
   60    3Au2f0        3Au2f+1       3Au2f+2       3Au2f+3       3Au3f-3       3Au3f-2       3Au3f-1       3Au3f0        3Au3f+1       3Au3f+2   
   61    3Au3f+3       3Au4f-3       3Au4f-2       3Au4f-1       3Au4f0        3Au4f+1       3Au4f+2       3Au4f+3       3Au5f-3       3Au5f-2   
   62    3Au5f-1       3Au5f0        3Au5f+1       3Au5f+2       3Au5f+3       3Au6f-3       3Au6f-2       3Au6f-1       3Au6f0        3Au6f+1   
   63    3Au6f+2       3Au6f+3       3Au7f-3       3Au7f-2       3Au7f-1       3Au7f0        3Au7f+1       3Au7f+2       3Au7f+3       3Au8f-3   
   64    3Au8f-2       3Au8f-1       3Au8f0        3Au8f+1       3Au8f+2       3Au8f+3       3Au1g-4       3Au1g-3       3Au1g-2       3Au1g-1   
   65    3Au1g0        3Au1g+1       3Au1g+2       3Au1g+3       3Au1g+4       3Au2g-4       3Au2g-3       3Au2g-2       3Au2g-1       3Au2g0    
   66    3Au2g+1       3Au2g+2       3Au2g+3       3Au2g+4       3Au3g-4       3Au3g-3       3Au3g-2       3Au3g-1       3Au3g0        3Au3g+1   
   67    3Au3g+2       3Au3g+3       3Au3g+4       3Au4g-4       3Au4g-3       3Au4g-2       3Au4g-1       3Au4g0        3Au4g+1       3Au4g+2   
   68    3Au4g+3       3Au4g+4       3Au1h-5       3Au1h-4       3Au1h-3       3Au1h-2       3Au1h-1       3Au1h0        3Au1h+1       3Au1h+2   
   69    3Au1h+3       3Au1h+4       3Au1h+5       3Au2h-5       3Au2h-4       3Au2h-3       3Au2h-2       3Au2h-1       3Au2h0        3Au2h+1   
   70    3Au2h+2       3Au2h+3       3Au2h+4       3Au2h+5       3Au3h-5       3Au3h-4       3Au3h-3       3Au3h-2       3Au3h-1       3Au3h0    
   71    3Au3h+1       3Au3h+2       3Au3h+3       3Au3h+4       3Au3h+5       3Au1i-6       3Au1i-5       3Au1i-4       3Au1i-3       3Au1i-2   
   72    3Au1i-1       3Au1i0        3Au1i+1       3Au1i+2       3Au1i+3       3Au1i+4       3Au1i+5       3Au1i+6       3Au2i-6       3Au2i-5   
   73    3Au2i-4       3Au2i-3       3Au2i-2       3Au2i-1       3Au2i0        3Au2i+1       3Au2i+2       3Au2i+3       3Au2i+4       3Au2i+5   
   74    3Au2i+6       4Au1s         4Au2s         4Au3s         4Au4s         4Au5s         4Au6s         4Au7s         4Au8s         4Au9s     
   75    4Au10s        4Au11s        4Au12s        4Au13s        4Au1pz        4Au1py        4Au1px        4Au2pz        4Au2py        4Au2px    
   76    4Au3pz        4Au3py        4Au3px        4Au4pz        4Au4py        4Au4px        4Au5pz        4Au5py        4Au5px        4Au6pz    
   77    4Au6py        4Au6px        4Au7pz        4Au7py        4Au7px        4Au8pz        4Au8py        4Au8px        4Au9pz        4Au9py    
   78    4Au9px        4Au10pz       4Au10py       4Au10px       4Au11pz       4Au11py       4Au11px       4Au1d-2       4Au1d-1       4Au1d0    
   79    4Au1d+1       4Au1d+2       4Au2d-2       4Au2d-1       4Au2d0        4Au2d+1       4Au2d+2       4Au3d-2       4Au3d-1       4Au3d0    
   80    4Au3d+1       4Au3d+2       4Au4d-2       4Au4d-1       4Au4d0        4Au4d+1       4Au4d+2       4Au5d-2       4Au5d-1       4Au5d0    
   81    4Au5d+1       4Au5d+2       4Au6d-2       4Au6d-1       4Au6d0        4Au6d+1       4Au6d+2       4Au7d-2       4Au7d-1       4Au7d0    
   82    4Au7d+1       4Au7d+2       4Au8d-2       4Au8d-1       4Au8d0        4Au8d+1       4Au8d+2       4Au9d-2       4Au9d-1       4Au9d0    
   83    4Au9d+1       4Au9d+2       4Au10d-2      4Au10d-1      4Au10d0       4Au10d+1      4Au10d+2      4Au1f-3       4Au1f-2       4Au1f-1   
   84    4Au1f0        4Au1f+1       4Au1f+2       4Au1f+3       4Au2f-3       4Au2f-2       4Au2f-1       4Au2f0        4Au2f+1       4Au2f+2   
   85    4Au2f+3       4Au3f-3       4Au3f-2       4Au3f-1       4Au3f0        4Au3f+1       4Au3f+2       4Au3f+3       4Au4f-3       4Au4f-2   
   86    4Au4f-1       4Au4f0        4Au4f+1       4Au4f+2       4Au4f+3       4Au5f-3       4Au5f-2       4Au5f-1       4Au5f0        4Au5f+1   
   87    4Au5f+2       4Au5f+3       4Au6f-3       4Au6f-2       4Au6f-1       4Au6f0        4Au6f+1       4Au6f+2       4Au6f+3       4Au7f-3   
   88    4Au7f-2       4Au7f-1       4Au7f0        4Au7f+1       4Au7f+2       4Au7f+3       4Au8f-3       4Au8f-2       4Au8f-1       4Au8f0    
   89    4Au8f+1       4Au8f+2       4Au8f+3       4Au1g-4       4Au1g-3       4Au1g-2       4Au1g-1       4Au1g0        4Au1g+1       4Au1g+2   
   90    4Au1g+3       4Au1g+4       4Au2g-4       4Au2g-3       4Au2g-2       4Au2g-1       4Au2g0        4Au2g+1       4Au2g+2       4Au2g+3   
   91    4Au2g+4       4Au3g-4       4Au3g-3       4Au3g-2       4Au3g-1       4Au3g0        4Au3g+1       4Au3g+2       4Au3g+3       4Au3g+4   
   92    4Au4g-4       4Au4g-3       4Au4g-2       4Au4g-1       4Au4g0        4Au4g+1       4Au4g+2       4Au4g+3       4Au4g+4       4Au1h-5   
   93    4Au1h-4       4Au1h-3       4Au1h-2       4Au1h-1       4Au1h0        4Au1h+1       4Au1h+2       4Au1h+3       4Au1h+4       4Au1h+5   
   94    4Au2h-5       4Au2h-4       4Au2h-3       4Au2h-2       4Au2h-1       4Au2h0        4Au2h+1       4Au2h+2       4Au2h+3       4Au2h+4   
   95    4Au2h+5       4Au3h-5       4Au3h-4       4Au3h-3       4Au3h-2       4Au3h-1       4Au3h0        4Au3h+1       4Au3h+2       4Au3h+3   
   96    4Au3h+4       4Au3h+5       4Au1i-6       4Au1i-5       4Au1i-4       4Au1i-3       4Au1i-2       4Au1i-1       4Au1i0        4Au1i+1   
   97    4Au1i+2       4Au1i+3       4Au1i+4       4Au1i+5       4Au1i+6       4Au2i-6       4Au2i-5       4Au2i-4       4Au2i-3       4Au2i-2   
   98    4Au2i-1       4Au2i0        4Au2i+1       4Au2i+2       4Au2i+3       4Au2i+4       4Au2i+5       4Au2i+6   
 
 Maximum number of basis functions per shell:   56
 Total number of basis functions:    988
 
 
 Effective core potentials:
 
   1  Au mcdhf-ecp-60        
   2  Au mcdhf-ecp-60        
   3  Au mcdhf-ecp-60        
   4  Au mcdhf-ecp-60        
 
 Initializing the SAD routines for the initial guess...
 Checking the files required for the initial guess...
 All atomic density files have been found for the initial guess.
 CPU time [min]:     0.081                   Wall time [min]:     0.012
 
 Character table for point group C1:
 
          E  
    A     1
 
 Number of basis functions per irrep:
    A     128
 
 
 Calculation of overlap integrals...
 CPU time [min]:     0.092                   Wall time [min]:     0.013
 
 Calculation of the square root of the overlap matrix...
 Minimum eigenvalue of the overlap matrix: 0.339601E-02
 CPU time [min]:     0.116                   Wall time [min]:     0.014
 
 Calculation of kinetic energy integrals...
 CPU time [min]:     0.127                   Wall time [min]:     0.015
 Calculation of dipole moment integrals...
 CPU time [min]:     0.129                   Wall time [min]:     0.015
 Calculation of nuclear attraction integrals...
 CPU time [min]:     0.132                   Wall time [min]:     0.015
 Calculation of core potential integrals...
 CPU time [min]:     0.357                   Wall time [min]:     0.184
 
 Calculation of prescreening integrals...
 CPU time [min]:     0.448                   Wall time [min]:     0.188
 
 Calculation of two-center Coulomb integrals...
   1% done.
  12% done.
  25% done.
  36% done.
  48% done.
  63% done.
  82% done.
  95% done.
 100% done.
 CPU time [min]:     0.468                   Wall time [min]:     0.189
 
 Cholesky decomposition of the two-center matrix...
 Reciprocal of the condition number:  0.170737E-05
 CPU time [min]:     0.581                   Wall time [min]:     0.194
 
 
 Running small-basis SCF...

 ************************ 2022-11-01 10:25:07 *************************
 Executing scf...

 @scfsetup: integrals calculated directly
            mrcc/integ direct run
 @scfsetup: calculating on full matrices
            not using symmetry adapted basis
 @scfsetup: diis switched on
 @scfsetup: number of steps to extrapolate from  10
 @scfsetup: tolerance in energy deviation    0.100000E-05
            tolerance in density deviation    0.100000E-06
 @scfsetup: maximum number of iterations:  50
 @scfsetup: restricted closed shell hf calc
 @scfsetup: starting scf from superposition of atomic densities
 @scfsetup: occupation set:
            from initial orbitals
 @scfsetup: Parameter-set for SCF acceleration: difficult
 @scfsetup: diis runs from iteration:   2
 @scfsetup: diis runs to iteration:  50
 @scfsetup: diis runs in every iteration
 @scfsetup: diiswatch is disabled                   
 @scfsetup: diis dtol criteria to switch on:      0.0000E+00
           (or the iteration number below is reached)
 @scfsetup: damping is turned off.
 @scfsetup: dynamic level shifting
            tolarance in HOMO-LUMO gap:  0.200
            tolarance in density deviation:     0.0000E+00
            iteration step criteria to turn level shifting off: 8
 Allocation of 150.0 Gbytes of memory...
 ======================================================================
 ITERATION STEP   1
 CPU time [min]:     0.024                   Wall time [min]:     0.007
 

 SCF control                  : initial
 Damping factor/level shift   : 0.000/0.200
 DIIS [start/end/frequency]   :   2 / 50 /  1

 Constructing Fock-matrix...
 
 Pipek-Mezey localization...
 Step  Convergence
   1  27.306087722075
   2   7.783597770997
   3   1.782844336773
   4   0.021438756957
   5   0.000005893212
   6   0.000000000399
 CPU time [min]:     0.047                   Wall time [min]:     0.008
 
 Constructing local fitting domains...
 Maximum number of atoms in fitting domains:    4
 Average number of atoms in fitting domains:    4.0
 
 First step of Coulomb + first step of exchange...
 Exchange contribution is evaluated for MOs 1 to 38.
   1% done.
  14% done.
  25% done.
  38% done.
  49% done.
  64% done.
  75% done.
  89% done.
 100% done.
 CPU time [min]:     0.169                   Wall time [min]:     0.013
 
 Fitting and assembly step of exchange...
 CPU time [min]:     0.176                   Wall time [min]:     0.014
 
 Second step of Coulomb...
   1% done.
  14% done.
  25% done.
  38% done.
  49% done.
  64% done.
  75% done.
  89% done.
 100% done.
 CPU time [min]:     0.207                   Wall time [min]:     0.015
 
 Gradient norm:      2.5526E+00
 RMS of [F,P]:                                         0.04477334399683
 RMS of difference density:                            0.02899871960357
 Gap [au]:  0.14313538
 ALPHA OCC:  38
 BETA  OCC:  38
 
 ***HARTREE-FOCK ENERGY IN STEP   1 IS       -537.7354475198319506 [AU]
 ======================================================================
 ITERATION STEP   2
 CPU time [min]:     0.224                   Wall time [min]:     0.016
 

 SCF control                  : diis
 Damping factor/level shift   : 0.000/0.200
 DIIS [start/end/frequency]   :   2 / 50 /  1

 Constructing Fock-matrix...
 
 Pipek-Mezey localization...
 Step  Convergence
   1   2.766819729853
   2   3.059715499368
   3   0.730346330928
   4   0.036418444540
   5   0.000591153782
   6   0.000002028437
   7   0.000000016658
 CPU time [min]:     0.243                   Wall time [min]:     0.017
 
 Constructing local fitting domains...
 Maximum number of atoms in fitting domains:    4
 Average number of atoms in fitting domains:    4.0
 
 First step of Coulomb + first step of exchange...
 Exchange contribution is evaluated for MOs 1 to 38.
   1% done.
  14% done.
  25% done.
  38% done.
  49% done.
  64% done.
  75% done.
  89% done.
 100% done.
 CPU time [min]:     0.328                   Wall time [min]:     0.020
 
 Fitting and assembly step of exchange...
 CPU time [min]:     0.333                   Wall time [min]:     0.020
 
 Second step of Coulomb...
   1% done.
  14% done.
  25% done.
  38% done.
  49% done.
  64% done.
  75% done.
  89% done.
 100% done.
 CPU time [min]:     0.363                   Wall time [min]:     0.022
 
 Gradient norm:      4.6644E-01
 DIIS is running in this iteration step.
 RMS of [F,P]:                                         0.01354110887870
 RMS of difference density:                            0.01575442673191
 Gap [au]:  0.21942766
 ALPHA OCC:  38
 BETA  OCC:  38
 
 ***HARTREE-FOCK ENERGY IN STEP   2 IS       -538.8713953118942754 [AU]
 
 Step comparison  Energy Drift [au]  DIIS error drift  Gradient drift
        1            1.1359E+00         3.1232E-02       2.0862E+00
        2            5.3887E+02         1.0000E-07       2.0862E+00
 ======================================================================
 ITERATION STEP   3
 CPU time [min]:     0.372                   Wall time [min]:     0.022
 

 SCF control                  : diis
 Damping factor/level shift   : 0.000/0.000
 DIIS [start/end/frequency]   :   2 / 50 /  1

 Constructing Fock-matrix...
 
 Pipek-Mezey localization...
 Step  Convergence
   1   8.562365834225
   2   2.726953849701
   3   0.284017480289
   4   0.009430021827
   5   0.000125427461
   6   0.000001624214
   7   0.000000034332
 CPU time [min]:     0.392                   Wall time [min]:     0.023
 
 Constructing local fitting domains...
 Local fitting domains are unchanged.
 
 First step of Coulomb + first step of exchange...
 Exchange contribution is evaluated for MOs 1 to 38.
   1% done.
  14% done.
  25% done.
  38% done.
  49% done.
  64% done.
  75% done.
  89% done.
 100% done.
 CPU time [min]:     0.477                   Wall time [min]:     0.027
 
 Fitting and assembly step of exchange...
 CPU time [min]:     0.483                   Wall time [min]:     0.027
 
 Second step of Coulomb...
   1% done.
  14% done.
  25% done.
  38% done.
  49% done.
  64% done.
  75% done.
  89% done.
 100% done.
 CPU time [min]:     0.512                   Wall time [min]:     0.028
 
 Gradient norm:      1.5244E-01
 DIIS is running in this iteration step.
 RMS of [F,P]:                                         0.00481830403349
 RMS of difference density:                            0.00441065804356
 Gap [au]:  0.20335654
 ALPHA OCC:  38
 BETA  OCC:  38
 
 ***HARTREE-FOCK ENERGY IN STEP   3 IS       -539.0956290798815189 [AU]
 
 Step comparison  Energy Drift [au]  DIIS error drift  Gradient drift
        2            2.2423E-01         8.7228E-03       3.1400E-01
 ======================================================================
 ITERATION STEP   4
 CPU time [min]:     0.520                   Wall time [min]:     0.028
 

 SCF control                  : diis
 Damping factor/level shift   : 0.000/0.000
 DIIS [start/end/frequency]   :   2 / 50 /  1

 Constructing Fock-matrix...
 
 Pipek-Mezey localization...
 Step  Convergence
   1   9.987401938516
   2   3.154976559878
   3   0.972594127819
   4   0.057666690948
   5   0.001854449294
   6   0.000067364107
   7   0.000002823963
   8   0.000000141264
 CPU time [min]:     0.539                   Wall time [min]:     0.029
 
 Constructing local fitting domains...
 Local fitting domains are unchanged.
 
 First step of Coulomb + first step of exchange...
 Exchange contribution is evaluated for MOs 1 to 38.
   1% done.
  14% done.
  25% done.
  38% done.
  49% done.
  64% done.
  75% done.
  89% done.
 100% done.
 CPU time [min]:     0.624                   Wall time [min]:     0.033
 
 Fitting and assembly step of exchange...
 CPU time [min]:     0.630                   Wall time [min]:     0.033
 
 Second step of Coulomb...
   1% done.
  14% done.
  25% done.
  38% done.
  49% done.
  64% done.
  75% done.
  89% done.
 100% done.
 CPU time [min]:     0.659                   Wall time [min]:     0.034
 
 Gradient norm:      3.5890E-02
 DIIS is running in this iteration step.
 RMS of [F,P]:                                         0.00070032990200
 RMS of difference density:                            0.00122061638480
 Gap [au]:  0.20924943
 ALPHA OCC:  38
 BETA  OCC:  38
 
 ***HARTREE-FOCK ENERGY IN STEP   4 IS       -539.1334684634728092 [AU]
 
 Step comparison  Energy Drift [au]  DIIS error drift  Gradient drift
        3            3.7839E-02         4.1180E-03       1.1655E-01
 ======================================================================
 ITERATION STEP   5
 CPU time [min]:     0.666                   Wall time [min]:     0.035
 

 SCF control                  : diis
 Damping factor/level shift   : 0.000/0.000
 DIIS [start/end/frequency]   :   2 / 50 /  1

 Constructing Fock-matrix...
 
 Pipek-Mezey localization...
 Step  Convergence
   1  11.177928536073
   2   3.889434806287
   3   0.383020780950
   4   0.009924103416
   5   0.000140016913
   6   0.000006225363
   7   0.000000278231
 CPU time [min]:     0.686                   Wall time [min]:     0.036
 
 Constructing local fitting domains...
 Local fitting domains are unchanged.
 
 First step of Coulomb + first step of exchange...
 Exchange contribution is evaluated for MOs 1 to 38.
   1% done.
  14% done.
  25% done.
  38% done.
  49% done.
  64% done.
  75% done.
  89% done.
 100% done.
 CPU time [min]:     0.771                   Wall time [min]:     0.039
 
 Fitting and assembly step of exchange...
 CPU time [min]:     0.776                   Wall time [min]:     0.040
 
 Second step of Coulomb...
   1% done.
  14% done.
  25% done.
  38% done.
  49% done.
  64% done.
  75% done.
  89% done.
 100% done.
 CPU time [min]:     0.805                   Wall time [min]:     0.041
 
 Gradient norm:      1.3812E-02
 DIIS is running in this iteration step.
 RMS of [F,P]:                                         0.00040689085336
 RMS of difference density:                            0.00090878374502
 Gap [au]:  0.21175476
 ALPHA OCC:  38
 BETA  OCC:  38
 
 ***HARTREE-FOCK ENERGY IN STEP   5 IS       -539.1351024807963768 [AU]
 
 Step comparison  Energy Drift [au]  DIIS error drift  Gradient drift
        4            1.6340E-03         2.9344E-04       2.2077E-02
 ======================================================================
 ITERATION STEP   6
 CPU time [min]:     0.813                   Wall time [min]:     0.041
 

 SCF control                  : diis
 Damping factor/level shift   : 0.000/0.000
 DIIS [start/end/frequency]   :   2 / 50 /  1

 Constructing Fock-matrix...
 
 Pipek-Mezey localization...
 Step  Convergence
   1  10.433225908694
   2   3.985138043981
   3   0.096076630038
   4   0.001973913507
   5   0.000025564432
   6   0.000000639812
 CPU time [min]:     0.832                   Wall time [min]:     0.042
 
 Constructing local fitting domains...
 Local fitting domains are unchanged.
 
 First step of Coulomb + first step of exchange...
 Exchange contribution is evaluated for MOs 1 to 38.
   1% done.
  14% done.
  25% done.
  38% done.
  49% done.
  64% done.
  75% done.
  89% done.
 100% done.
 CPU time [min]:     0.917                   Wall time [min]:     0.046
 
 Fitting and assembly step of exchange...
 CPU time [min]:     0.922                   Wall time [min]:     0.046
 
 Second step of Coulomb...
   1% done.
  14% done.
  25% done.
  38% done.
  49% done.
  64% done.
  75% done.
  89% done.
 100% done.
 CPU time [min]:     0.952                   Wall time [min]:     0.047
 
 Gradient norm:      4.5096E-03
 DIIS is running in this iteration step.
 RMS of [F,P]:                                         0.00008677209458
 RMS of difference density:                            0.00021900679237
 Gap [au]:  0.21167856
 ALPHA OCC:  38
 BETA  OCC:  38
 
 ***HARTREE-FOCK ENERGY IN STEP   6 IS       -539.1356218277132939 [AU]
 
 Step comparison  Energy Drift [au]  DIIS error drift  Gradient drift
        5            5.1935E-04         3.2012E-04       9.3029E-03
 ======================================================================
 ITERATION STEP   7
 CPU time [min]:     0.960                   Wall time [min]:     0.047
 

 SCF control                  : diis
 Damping factor/level shift   : 0.000/0.000
 DIIS [start/end/frequency]   :   2 / 50 /  1

 Constructing Fock-matrix...
 
 Pipek-Mezey localization...
 Step  Convergence
   1  13.763877206212
   2   7.127970520847
   3  10.270042992677
   4   2.968727027577
   5   0.763795154680
   6   0.002860407111
   7   0.000066034088
   8   0.000002736956
   9   0.000000104624
  10   0.000000005363
  11   0.000000000235
  12   0.000000000012
  13   0.000000000001
 CPU time [min]:     0.981                   Wall time [min]:     0.049
 
 Constructing local fitting domains...
 Local fitting domains are unchanged.
 
 First step of Coulomb + first step of exchange...
 Exchange contribution is evaluated for MOs 1 to 38.
   1% done.
  14% done.
  25% done.
  38% done.
  49% done.
  64% done.
  75% done.
  89% done.
 100% done.
 CPU time [min]:     1.066                   Wall time [min]:     0.052
 
 Fitting and assembly step of exchange...
 CPU time [min]:     1.072                   Wall time [min]:     0.052
 
 Second step of Coulomb...
   1% done.
  14% done.
  25% done.
  38% done.
  49% done.
  64% done.
  75% done.
  89% done.
 100% done.
 CPU time [min]:     1.101                   Wall time [min]:     0.054
 
 Gradient norm:      2.1461E-03
 DIIS is running in this iteration step.
 RMS of [F,P]:                                         0.00004136928497
 RMS of difference density:                            0.00009856894913
 Gap [au]:  0.21191289
 ALPHA OCC:  38
 BETA  OCC:  38
 
 ***HARTREE-FOCK ENERGY IN STEP   7 IS       -539.1356660685432871 [AU]
 
 Step comparison  Energy Drift [au]  DIIS error drift  Gradient drift
        6            4.4241E-05         4.5403E-05       2.3634E-03
 ======================================================================
 ITERATION STEP   8
 CPU time [min]:     1.108                   Wall time [min]:     0.054
 

 SCF control                  : diis
 Damping factor/level shift   : 0.000/0.000
 DIIS [start/end/frequency]   :   2 / 50 /  1

 Constructing Fock-matrix...
 
 Pipek-Mezey localization...
 Step  Convergence
   1  12.969575127335
   2   7.767966507560
   3   7.516475174112
   4   3.910381658090
   5   0.928444609125
   6   0.077739122398
   7   0.000217313960
   8   0.000006412803
   9   0.000000379548
  10   0.000000022113
  11   0.000000001316
  12   0.000000000080
  13   0.000000000005
  14   0.000000000000
 CPU time [min]:     1.130                   Wall time [min]:     0.055
 
 Constructing local fitting domains...
 Local fitting domains are unchanged.
 
 First step of Coulomb + first step of exchange...
 Exchange contribution is evaluated for MOs 1 to 38.
   1% done.
  14% done.
  25% done.
  38% done.
  49% done.
  64% done.
  75% done.
  89% done.
 100% done.
 CPU time [min]:     1.215                   Wall time [min]:     0.059
 
 Fitting and assembly step of exchange...
 CPU time [min]:     1.221                   Wall time [min]:     0.059
 
 Second step of Coulomb...
   1% done.
  14% done.
  25% done.
  38% done.
  49% done.
  64% done.
  75% done.
  89% done.
 100% done.
 CPU time [min]:     1.250                   Wall time [min]:     0.060
 
 Gradient norm:      1.0526E-03
 DIIS is running in this iteration step.
 RMS of [F,P]:                                         0.00001139028726
 RMS of difference density:                            0.00004631558737
 Gap [au]:  0.21193323
 ALPHA OCC:  38
 BETA  OCC:  38
 
 ***HARTREE-FOCK ENERGY IN STEP   8 IS       -539.1356767392380789 [AU]
 
 Step comparison  Energy Drift [au]  DIIS error drift  Gradient drift
        7            1.0671E-05         2.9979E-05       1.0936E-03
 ======================================================================
 ITERATION STEP   9
 CPU time [min]:     1.257                   Wall time [min]:     0.060
 

 SCF control                  : diis
 Damping factor/level shift   : 0.000/0.000
 DIIS [start/end/frequency]   :   2 / 50 /  1

 Constructing Fock-matrix...
 
 Pipek-Mezey localization...
 Step  Convergence
   1  13.011470174858
   2   8.576433793628
   3   8.345857207730
   4   3.640979963637
   5   0.630002892935
   6   0.009107922132
   7   0.000290680372
   8   0.000022085301
   9   0.000001710333
  10   0.000000135066
  11   0.000000010616
  12   0.000000000839
  13   0.000000000066
  14   0.000000000005
  15   0.000000000000
 CPU time [min]:     1.279                   Wall time [min]:     0.061
 
 Constructing local fitting domains...
 Local fitting domains are unchanged.
 
 First step of Coulomb + first step of exchange...
 Exchange contribution is evaluated for MOs 1 to 38.
   1% done.
  14% done.
  25% done.
  38% done.
  49% done.
  64% done.
  75% done.
  89% done.
 100% done.
 CPU time [min]:     1.363                   Wall time [min]:     0.065
 
 Fitting and assembly step of exchange...
 CPU time [min]:     1.369                   Wall time [min]:     0.065
 
 Second step of Coulomb...
   1% done.
  14% done.
  25% done.
  38% done.
  49% done.
  64% done.
  75% done.
  89% done.
 100% done.
 CPU time [min]:     1.398                   Wall time [min]:     0.066
 
 Gradient norm:      3.5769E-04
 DIIS is running in this iteration step.
 RMS of [F,P]:                                         0.00000424558742
 RMS of difference density:                            0.00001768965779
 Gap [au]:  0.21189672
 ALPHA OCC:  38
 BETA  OCC:  38
 
 ***HARTREE-FOCK ENERGY IN STEP   9 IS       -539.1356784897191119 [AU]
 
 Step comparison  Energy Drift [au]  DIIS error drift  Gradient drift
        8            1.7505E-06         7.1447E-06       6.9490E-04
 ======================================================================
 ITERATION STEP  10
 CPU time [min]:     1.406                   Wall time [min]:     0.067
 

 SCF control                  : diis
 Damping factor/level shift   : 0.000/0.000
 DIIS [start/end/frequency]   :   2 / 50 /  1

 Constructing Fock-matrix...
 
 Pipek-Mezey localization...
 Step  Convergence
   1  11.015856245178
   2   8.628844559965
   3   8.690054303245
   4   2.067764688297
   5   0.433189218865
   6   0.008339083885
   7   0.000362087012
   8   0.000041313241
   9   0.000004282215
  10   0.000000580116
  11   0.000000073173
  12   0.000000009527
  13   0.000000001249
  14   0.000000000161
  15   0.000000000021
  16   0.000000000003
  17   0.000000000000
 CPU time [min]:     1.428                   Wall time [min]:     0.068
 
 Constructing local fitting domains...
 Local fitting domains are unchanged.
 
 First step of Coulomb + first step of exchange...
 Exchange contribution is evaluated for MOs 1 to 38.
   1% done.
  14% done.
  25% done.
  38% done.
  49% done.
  64% done.
  75% done.
  89% done.
 100% done.
 CPU time [min]:     1.513                   Wall time [min]:     0.071
 
 Fitting and assembly step of exchange...
 CPU time [min]:     1.519                   Wall time [min]:     0.072
 
 Second step of Coulomb...
   1% done.
  14% done.
  25% done.
  38% done.
  49% done.
  64% done.
  75% done.
  89% done.
 100% done.
 CPU time [min]:     1.548                   Wall time [min]:     0.073
 
 Gradient norm:      8.2268E-05
 DIIS is running in this iteration step.
 RMS of [F,P]:                                         0.00000102515538
 RMS of difference density:                            0.00000407988418
 Gap [au]:  0.21189397
 ALPHA OCC:  38
 BETA  OCC:  38
 
 ***HARTREE-FOCK ENERGY IN STEP  10 IS       -539.1356787061624800 [AU]
 
 Step comparison  Energy Drift [au]  DIIS error drift  Gradient drift
        9            2.1644E-07         3.2204E-06       2.7542E-04
 ======================================================================
 ITERATION STEP  11
 CPU time [min]:     1.555                   Wall time [min]:     0.073
 

 SCF control                  : diis
 Damping factor/level shift   : 0.000/0.000
 DIIS [start/end/frequency]   :   2 / 50 /  1

 Constructing Fock-matrix...
 
 Pipek-Mezey localization...
 Step  Convergence
   1  13.735419074513
   2   7.020813895950
   3   7.261724245634
   4   1.977704016959
   5   0.599415943238
   6   0.015855251498
   7   0.000822808438
   8   0.000141091150
   9   0.000016034066
  10   0.000002556276
  11   0.000000338125
  12   0.000000052725
  13   0.000000007520
  14   0.000000001197
  15   0.000000000179
  16   0.000000000029
  17   0.000000000005
  18   0.000000000001
 CPU time [min]:     1.578                   Wall time [min]:     0.074
 
 Constructing local fitting domains...
 Local fitting domains are unchanged.
 
 First step of Coulomb + first step of exchange...
 Exchange contribution is evaluated for MOs 1 to 38.
   1% done.
  14% done.
  25% done.
  38% done.
  49% done.
  64% done.
  75% done.
  89% done.
 100% done.
 CPU time [min]:     1.663                   Wall time [min]:     0.078
 
 Fitting and assembly step of exchange...
 CPU time [min]:     1.669                   Wall time [min]:     0.078
 
 Second step of Coulomb...
   1% done.
  14% done.
  25% done.
  38% done.
  49% done.
  64% done.
  75% done.
  89% done.
 100% done.
 CPU time [min]:     1.698                   Wall time [min]:     0.079
 
 Gradient norm:      2.2311E-05
 DIIS is running in this iteration step.
 RMS of [F,P]:                                         0.00000041529136
 RMS of difference density:                            0.00000145391191
 Gap [au]:  0.21189163
 ALPHA OCC:  38
 BETA  OCC:  38
 
 ***HARTREE-FOCK ENERGY IN STEP  11 IS       -539.1356787171462202 [AU]
 
 Step comparison  Energy Drift [au]  DIIS error drift  Gradient drift
       10            1.0984E-08         6.0986E-07       5.9958E-05
 ======================================================================
 ITERATION STEP  12
 CPU time [min]:     1.705                   Wall time [min]:     0.080
 

 SCF control                  : diis
 Damping factor/level shift   : 0.000/0.000
 DIIS [start/end/frequency]   :   2 / 50 /  1

 Constructing Fock-matrix...
 
 Pipek-Mezey localization...
 Step  Convergence
   1  13.309083826467
   2   7.086742869135
   3   7.668394818480
   4   3.012314062838
   5   0.606722204737
   6   0.021006009302
   7   0.001483365494
   8   0.000048536670
   9   0.000002690038
  10   0.000000189958
  11   0.000000011933
  12   0.000000000807
  13   0.000000000052
  14   0.000000000004
  15   0.000000000000
 CPU time [min]:     1.727                   Wall time [min]:     0.081
 
 Constructing local fitting domains...
 Local fitting domains are unchanged.
 
 First step of Coulomb + first step of exchange...
 Exchange contribution is evaluated for MOs 1 to 38.
   1% done.
  14% done.
  25% done.
  38% done.
  49% done.
  64% done.
  75% done.
  89% done.
 100% done.
 CPU time [min]:     1.812                   Wall time [min]:     0.084
 
 Fitting and assembly step of exchange...
 CPU time [min]:     1.818                   Wall time [min]:     0.085
 
 Second step of Coulomb...
   1% done.
  14% done.
  25% done.
  38% done.
  49% done.
  64% done.
  75% done.
  89% done.
 100% done.
 CPU time [min]:     1.847                   Wall time [min]:     0.086
 
 Gradient norm:      7.5076E-06
 DIIS is running in this iteration step.
 RMS of [F,P]:                                         0.00000011967819
 RMS of difference density:                            0.00000044742408
 Gap [au]:  0.21189145
 ALPHA OCC:  38
 BETA  OCC:  38
 
 ***HARTREE-FOCK ENERGY IN STEP  12 IS       -539.1356787186639394 [AU]
 
 Step comparison  Energy Drift [au]  DIIS error drift  Gradient drift
       11            1.5177E-09         2.9561E-07       1.4803E-05
 ======================================================================
 ITERATION STEP  13
 CPU time [min]:     1.854                   Wall time [min]:     0.086
 

 SCF control                  : diis
 Damping factor/level shift   : 0.000/0.000
 DIIS [start/end/frequency]   :   2 / 50 /  1

 Constructing Fock-matrix...
 
 Pipek-Mezey localization...
 Step  Convergence
   1  11.838837585918
   2   9.031834462388
   3   9.823613242368
   4   3.922158614270
   5   0.822077695151
   6   0.091988834981
   7   0.000982538130
   8   0.000165810593
   9   0.000033464958
  10   0.000006728278
  11   0.000001374795
  12   0.000000279506
  13   0.000000057244
  14   0.000000011701
  15   0.000000002398
  16   0.000000000492
  17   0.000000000101
  18   0.000000000021
  19   0.000000000004
  20   0.000000000001
 CPU time [min]:     1.877                   Wall time [min]:     0.087
 
 Constructing local fitting domains...
 Local fitting domains are unchanged.
 
 First step of Coulomb + first step of exchange...
 Exchange contribution is evaluated for MOs 1 to 38.
   1% done.
  14% done.
  25% done.
  38% done.
  49% done.
  64% done.
  75% done.
  89% done.
 100% done.
 CPU time [min]:     1.962                   Wall time [min]:     0.091
 
 Fitting and assembly step of exchange...
 CPU time [min]:     1.968                   Wall time [min]:     0.091
 
 Second step of Coulomb...
   1% done.
  14% done.
  25% done.
  38% done.
  49% done.
  64% done.
  75% done.
  89% done.
 100% done.
 CPU time [min]:     1.997                   Wall time [min]:     0.092
 
 Gradient norm:      3.3039E-06
 DIIS is running in this iteration step.
 RMS of [F,P]:                                         0.00000005769531
 RMS of difference density:                            0.00000010586129
 Gap [au]:  0.21189140
 ALPHA OCC:  38
 BETA  OCC:  38
 
 ***HARTREE-FOCK ENERGY IN STEP  13 IS       -539.1356787188424278 [AU]
 
 Step comparison  Energy Drift [au]  DIIS error drift  Gradient drift
       12            1.7849E-10         6.1983E-08       4.2037E-06
 ======================================================================
 ITERATION STEP  14
 CPU time [min]:     2.004                   Wall time [min]:     0.093
 

 SCF control                  : diis
 Damping factor/level shift   : 0.000/0.000
 DIIS [start/end/frequency]   :   2 / 50 /  1

 Constructing Fock-matrix...
 
 Pipek-Mezey localization...
 Step  Convergence
   1  13.540660828138
   2   9.578911289075
   3   8.910574331793
   4   3.535212479267
   5   1.027942865404
   6   0.109162349740
   7   0.000245876287
   8   0.000007673914
   9   0.000000453281
  10   0.000000027325
  11   0.000000001698
  12   0.000000000107
  13   0.000000000007
  14   0.000000000000
 CPU time [min]:     2.026                   Wall time [min]:     0.094
 
 Constructing local fitting domains...
 Local fitting domains are unchanged.
 
 First step of Coulomb + first step of exchange...
 Exchange contribution is evaluated for MOs 1 to 38.
   1% done.
  14% done.
  25% done.
  38% done.
  49% done.
  64% done.
  75% done.
  89% done.
 100% done.
 CPU time [min]:     2.111                   Wall time [min]:     0.097
 
 Fitting and assembly step of exchange...
 CPU time [min]:     2.116                   Wall time [min]:     0.097
 
 Second step of Coulomb...
   1% done.
  14% done.
  25% done.
  38% done.
  49% done.
  64% done.
  75% done.
  89% done.
 100% done.
 CPU time [min]:     2.146                   Wall time [min]:     0.099
 
 Gradient norm:      2.0703E-06
 DIIS is running in this iteration step.
 RMS of [F,P]:                                         0.00000003464243
 RMS of difference density:                            0.00000010799246
 Gap [au]:  0.21189123
 ALPHA OCC:  38
 BETA  OCC:  38
 
 ***HARTREE-FOCK ENERGY IN STEP  14 IS       -539.1356787188615272 [AU]
 
 Step comparison  Energy Drift [au]  DIIS error drift  Gradient drift
       13            1.9099E-11         2.3053E-08       1.2336E-06
 ======================================================================
 ITERATION STEP  15
 CPU time [min]:     2.154                   Wall time [min]:     0.099
 

 SCF control                  : diis
 Damping factor/level shift   : 0.000/0.000
 DIIS [start/end/frequency]   :   2 / 50 /  1

 Constructing Fock-matrix...
 
 Pipek-Mezey localization...
 Step  Convergence
   1  13.954139870636
   2   5.866477657058
   3   6.027469493935
   4   2.606398589344
   5   0.638750183906
   6   0.005542828737
   7   0.000298903905
   8   0.000050070279
   9   0.000008718656
  10   0.000001613030
  11   0.000000291628
  12   0.000000055041
  13   0.000000010145
  14   0.000000001935
  15   0.000000000361
  16   0.000000000069
  17   0.000000000013
  18   0.000000000003
  19   0.000000000000
 CPU time [min]:     2.177                   Wall time [min]:     0.100
 
 Constructing local fitting domains...
 Local fitting domains are unchanged.
 
 First step of Coulomb + first step of exchange...
 Exchange contribution is evaluated for MOs 1 to 38.
   1% done.
  14% done.
  25% done.
  38% done.
  49% done.
  64% done.
  75% done.
  89% done.
 100% done.
 CPU time [min]:     2.261                   Wall time [min]:     0.104
 
 Fitting and assembly step of exchange...
 CPU time [min]:     2.267                   Wall time [min]:     0.104
 
 Second step of Coulomb...
   1% done.
  14% done.
  25% done.
  38% done.
  49% done.
  64% done.
  75% done.
  89% done.
 100% done.
 CPU time [min]:     2.296                   Wall time [min]:     0.105
 
 Gradient norm:      9.4151E-07
 DIIS is running in this iteration step.
 RMS of [F,P]:                                         0.00000001064526
 RMS of difference density:                            0.00000005259741
 Gap [au]:  0.21189114
 ALPHA OCC:  38
 BETA  OCC:  38
 
 ***HARTREE-FOCK ENERGY IN STEP  15 IS       -539.1356787188708495 [AU]
 
 Step comparison  Energy Drift [au]  DIIS error drift  Gradient drift
       14            9.3223E-12         2.3997E-08       1.1288E-06
 ======================================================================
 
 SUCCESS...
 THE SCF ITERATION HAS CONVERGED!
 
                   A   
 FINAL ALPHA OCC:  38
 FINAL BETA  OCC:  38
 
 ***FINAL HARTREE-FOCK ENERGY:       -539.1356787188708495 [AU]
 
 Orbital energies [au]:
      Irrep         Alpha          Beta
    1   A         -4.695177      -4.695177
    2   A         -4.694628      -4.694628
    3   A         -4.660353      -4.660353
    4   A         -4.660346      -4.660346
    5   A         -2.768663      -2.768663
    6   A         -2.760943      -2.760943
    7   A         -2.759425      -2.759425
    8   A         -2.757510      -2.757510
    9   A         -2.756225      -2.756225
   10   A         -2.755373      -2.755373
   11   A         -2.725235      -2.725235
   12   A         -2.724449      -2.724449
   13   A         -2.721432      -2.721432
   14   A         -2.721072      -2.721072
   15   A         -2.718372      -2.718372
   16   A         -2.718343      -2.718343
   17   A         -0.558601      -0.558601
   18   A         -0.551196      -0.551196
   19   A         -0.522763      -0.522763
   20   A         -0.522168      -0.522168
   21   A         -0.512516      -0.512516
   22   A         -0.507625      -0.507625
   23   A         -0.488622      -0.488622
   24   A         -0.487987      -0.487987
   25   A         -0.455658      -0.455658
   26   A         -0.451941      -0.451941
   27   A         -0.448991      -0.448991
   28   A         -0.441747      -0.441747
   29   A         -0.440122      -0.440122
   30   A         -0.437603      -0.437603
   31   A         -0.426789      -0.426789
   32   A         -0.425174      -0.425174
   33   A         -0.420554      -0.420554
   34   A         -0.418254      -0.418254
   35   A         -0.414618      -0.414618
   36   A         -0.386398      -0.386398
   37   A         -0.366252      -0.366252
   38   A         -0.236120      -0.236120
 
   39   A         -0.024229      -0.024229
   40   A          0.017141       0.017141
   41   A          0.040913       0.040913
   42   A          0.074247       0.074247
   43   A          0.078356       0.078356
   44   A          0.105386       0.105386
   45   A          0.106836       0.106836
   46   A          0.133652       0.133652
   47   A          0.159503       0.159503
   48   A          0.171050       0.171050
   49   A          0.189438       0.189438
   50   A          0.206861       0.206861
   51   A          0.224133       0.224133
   52   A          0.236874       0.236874
   53   A          0.269548       0.269548
   54   A          0.313262       0.313262
   55   A          0.337732       0.337732
   56   A          0.354454       0.354454
   57   A          0.578750       0.578750
   58   A          0.596650       0.596650
   59   A          0.611130       0.611130
   60   A          0.648717       0.648717
   61   A          0.648861       0.648861
   62   A          0.651536       0.651536
   63   A          0.656689       0.656689
   64   A          0.674172       0.674172
   65   A          0.681730       0.681730
   66   A          0.700568       0.700568
   67   A          0.709793       0.709793
   68   A          0.711949       0.711949
   69   A          0.735177       0.735177
   70   A          0.775709       0.775709
   71   A          0.781770       0.781770
   72   A          0.803811       0.803811
   73   A          0.822164       0.822164
   74   A          0.826482       0.826482
   75   A          0.837979       0.837979
   76   A          0.935355       0.935355
   77   A          1.044787       1.044787
   78   A          1.050412       1.050412
   79   A          1.061383       1.061383
   80   A          1.072482       1.072482
   81   A          1.103465       1.103465
   82   A          1.111808       1.111808
   83   A          1.124038       1.124038
   84   A          1.261482       1.261482
   85   A          1.271769       1.271769
   86   A          1.376264       1.376264
   87   A          1.442986       1.442986
   88   A          1.555088       1.555088
   89   A          1.760853       1.760853
   90   A          1.789552       1.789552
   91   A          1.789655       1.789655
   92   A          1.793902       1.793902
   93   A          1.812586       1.812586
   94   A          1.812641       1.812641
   95   A          1.817542       1.817542
   96   A          1.825588       1.825588
   97   A          1.826361       1.826361
   98   A          1.835795       1.835795
   99   A          1.856467       1.856467
  100   A          1.878802       1.878802
  101   A          1.885618       1.885618
  102   A          1.886591       1.886591
  103   A          1.891237       1.891237
  104   A          1.925744       1.925744
  105   A          1.953120       1.953120
  106   A          1.955613       1.955613
  107   A          1.956340       1.956340
  108   A          1.959140       1.959140
  109   A          1.959346       1.959346
  110   A          1.962361       1.962361
  111   A          1.967203       1.967203
  112   A          1.992429       1.992429
  113   A          2.004190       2.004190
  114   A          2.015621       2.015621
  115   A          2.117467       2.117467
  116   A          2.164689       2.164689
  117   A          2.288023       2.288023
  118   A          2.380265       2.380265
  119   A          2.494097       2.494097
  120   A          2.526171       2.526171
  121   A         41.895713      41.895713
  122   A         41.931632      41.931632
  123   A         41.972214      41.972214
  124   A         42.009336      42.009336
  125   A        200.234599     200.234599
  126   A        200.264067     200.264067
  127   A        200.267416     200.267416
  128   A        200.296408     200.296408
 
 RETURNING FROM SCF ALGORITHM
 ======================================================================

 ************************ 2022-11-01 10:25:13 *************************
 Executing integ...

 Allocation of 150.0 Gbytes of memory...
 
 
 Number of atoms:                  4
 Charge:                           0
 Number of electrons:             76
 Number of core electrons:         0
 Spin multiplicity:                1
 
                 Cartesian coordinates [bohr]      Atomic mass [AMU]  Z
   1  Au    1.11278133    0.74729254    2.07139597   196.966543      79
   2  Au   -1.12006758   -0.73955547   -2.07053314   196.966543      79
   3  Au   -2.53472044   -2.71487222    2.34019414   196.966543      79
   4  Au    2.53472044    2.71487222   -2.34019414   196.966543      79
 
 This molecule is an asymmetric top.
 
 Rotational constants [cm-1]: 
      0.025101390069      0.007929541899      0.006025950083
 
 Point group: C1  
 Computational point group: C1  
 
 Cartesian coordinates in standard orientation [bohr]
   1  Au    0.00058418    2.46732219    0.00266499
   2  Au   -0.00052527   -2.46744293    0.00266473
   3  Au   -4.39000069    0.00037215   -0.00266483
   4  Au    4.38994177   -0.00025141   -0.00266490
 
 Nuclear repulsion energy [au]:        401.014549397316
 
 
 Basis set information:
 
 Maximum angular momentum: k
 Maximum number of contracted Gaussians:   13
 Maximum number of primitive Gaussians:    17
 Spherical harmonic GTOs are used.
 
 
 Conventional basis set:
 
   1  Au bse_acvqz [ 17s 14p 13d 5f 4g 3h | 9s 9p 8d 5f 4g 3h ]
   2  Au bse_acvqz [ 17s 14p 13d 5f 4g 3h | 9s 9p 8d 5f 4g 3h ]
   3  Au bse_acvqz [ 17s 14p 13d 5f 4g 3h | 9s 9p 8d 5f 4g 3h ]
   4  Au bse_acvqz [ 17s 14p 13d 5f 4g 3h | 9s 9p 8d 5f 4g 3h ]
 
 Basis functions:
            1             2             3             4             5             6             7             8             9            10
    0    1Au1s         1Au2s         1Au3s         1Au4s         1Au5s         1Au6s         1Au7s         1Au8s         1Au9s         1Au1pz    
    1    1Au1py        1Au1px        1Au2pz        1Au2py        1Au2px        1Au3pz        1Au3py        1Au3px        1Au4pz        1Au4py    
    2    1Au4px        1Au5pz        1Au5py        1Au5px        1Au6pz        1Au6py        1Au6px        1Au7pz        1Au7py        1Au7px    
    3    1Au8pz        1Au8py        1Au8px        1Au9pz        1Au9py        1Au9px        1Au1d-2       1Au1d-1       1Au1d0        1Au1d+1   
    4    1Au1d+2       1Au2d-2       1Au2d-1       1Au2d0        1Au2d+1       1Au2d+2       1Au3d-2       1Au3d-1       1Au3d0        1Au3d+1   
    5    1Au3d+2       1Au4d-2       1Au4d-1       1Au4d0        1Au4d+1       1Au4d+2       1Au5d-2       1Au5d-1       1Au5d0        1Au5d+1   
    6    1Au5d+2       1Au6d-2       1Au6d-1       1Au6d0        1Au6d+1       1Au6d+2       1Au7d-2       1Au7d-1       1Au7d0        1Au7d+1   
    7    1Au7d+2       1Au8d-2       1Au8d-1       1Au8d0        1Au8d+1       1Au8d+2       1Au1f-3       1Au1f-2       1Au1f-1       1Au1f0    
    8    1Au1f+1       1Au1f+2       1Au1f+3       1Au2f-3       1Au2f-2       1Au2f-1       1Au2f0        1Au2f+1       1Au2f+2       1Au2f+3   
    9    1Au3f-3       1Au3f-2       1Au3f-1       1Au3f0        1Au3f+1       1Au3f+2       1Au3f+3       1Au4f-3       1Au4f-2       1Au4f-1   
   10    1Au4f0        1Au4f+1       1Au4f+2       1Au4f+3       1Au5f-3       1Au5f-2       1Au5f-1       1Au5f0        1Au5f+1       1Au5f+2   
   11    1Au5f+3       1Au1g-4       1Au1g-3       1Au1g-2       1Au1g-1       1Au1g0        1Au1g+1       1Au1g+2       1Au1g+3       1Au1g+4   
   12    1Au2g-4       1Au2g-3       1Au2g-2       1Au2g-1       1Au2g0        1Au2g+1       1Au2g+2       1Au2g+3       1Au2g+4       1Au3g-4   
   13    1Au3g-3       1Au3g-2       1Au3g-1       1Au3g0        1Au3g+1       1Au3g+2       1Au3g+3       1Au3g+4       1Au4g-4       1Au4g-3   
   14    1Au4g-2       1Au4g-1       1Au4g0        1Au4g+1       1Au4g+2       1Au4g+3       1Au4g+4       1Au1h-5       1Au1h-4       1Au1h-3   
   15    1Au1h-2       1Au1h-1       1Au1h0        1Au1h+1       1Au1h+2       1Au1h+3       1Au1h+4       1Au1h+5       1Au2h-5       1Au2h-4   
   16    1Au2h-3       1Au2h-2       1Au2h-1       1Au2h0        1Au2h+1       1Au2h+2       1Au2h+3       1Au2h+4       1Au2h+5       1Au3h-5   
   17    1Au3h-4       1Au3h-3       1Au3h-2       1Au3h-1       1Au3h0        1Au3h+1       1Au3h+2       1Au3h+3       1Au3h+4       1Au3h+5   
   18    2Au1s         2Au2s         2Au3s         2Au4s         2Au5s         2Au6s         2Au7s         2Au8s         2Au9s         2Au1pz    
   19    2Au1py        2Au1px        2Au2pz        2Au2py        2Au2px        2Au3pz        2Au3py        2Au3px        2Au4pz        2Au4py    
   20    2Au4px        2Au5pz        2Au5py        2Au5px        2Au6pz        2Au6py        2Au6px        2Au7pz        2Au7py        2Au7px    
   21    2Au8pz        2Au8py        2Au8px        2Au9pz        2Au9py        2Au9px        2Au1d-2       2Au1d-1       2Au1d0        2Au1d+1   
   22    2Au1d+2       2Au2d-2       2Au2d-1       2Au2d0        2Au2d+1       2Au2d+2       2Au3d-2       2Au3d-1       2Au3d0        2Au3d+1   
   23    2Au3d+2       2Au4d-2       2Au4d-1       2Au4d0        2Au4d+1       2Au4d+2       2Au5d-2       2Au5d-1       2Au5d0        2Au5d+1   
   24    2Au5d+2       2Au6d-2       2Au6d-1       2Au6d0        2Au6d+1       2Au6d+2       2Au7d-2       2Au7d-1       2Au7d0        2Au7d+1   
   25    2Au7d+2       2Au8d-2       2Au8d-1       2Au8d0        2Au8d+1       2Au8d+2       2Au1f-3       2Au1f-2       2Au1f-1       2Au1f0    
   26    2Au1f+1       2Au1f+2       2Au1f+3       2Au2f-3       2Au2f-2       2Au2f-1       2Au2f0        2Au2f+1       2Au2f+2       2Au2f+3   
   27    2Au3f-3       2Au3f-2       2Au3f-1       2Au3f0        2Au3f+1       2Au3f+2       2Au3f+3       2Au4f-3       2Au4f-2       2Au4f-1   
   28    2Au4f0        2Au4f+1       2Au4f+2       2Au4f+3       2Au5f-3       2Au5f-2       2Au5f-1       2Au5f0        2Au5f+1       2Au5f+2   
   29    2Au5f+3       2Au1g-4       2Au1g-3       2Au1g-2       2Au1g-1       2Au1g0        2Au1g+1       2Au1g+2       2Au1g+3       2Au1g+4   
   30    2Au2g-4       2Au2g-3       2Au2g-2       2Au2g-1       2Au2g0        2Au2g+1       2Au2g+2       2Au2g+3       2Au2g+4       2Au3g-4   
   31    2Au3g-3       2Au3g-2       2Au3g-1       2Au3g0        2Au3g+1       2Au3g+2       2Au3g+3       2Au3g+4       2Au4g-4       2Au4g-3   
   32    2Au4g-2       2Au4g-1       2Au4g0        2Au4g+1       2Au4g+2       2Au4g+3       2Au4g+4       2Au1h-5       2Au1h-4       2Au1h-3   
   33    2Au1h-2       2Au1h-1       2Au1h0        2Au1h+1       2Au1h+2       2Au1h+3       2Au1h+4       2Au1h+5       2Au2h-5       2Au2h-4   
   34    2Au2h-3       2Au2h-2       2Au2h-1       2Au2h0        2Au2h+1       2Au2h+2       2Au2h+3       2Au2h+4       2Au2h+5       2Au3h-5   
   35    2Au3h-4       2Au3h-3       2Au3h-2       2Au3h-1       2Au3h0        2Au3h+1       2Au3h+2       2Au3h+3       2Au3h+4       2Au3h+5   
   36    3Au1s         3Au2s         3Au3s         3Au4s         3Au5s         3Au6s         3Au7s         3Au8s         3Au9s         3Au1pz    
   37    3Au1py        3Au1px        3Au2pz        3Au2py        3Au2px        3Au3pz        3Au3py        3Au3px        3Au4pz        3Au4py    
   38    3Au4px        3Au5pz        3Au5py        3Au5px        3Au6pz        3Au6py        3Au6px        3Au7pz        3Au7py        3Au7px    
   39    3Au8pz        3Au8py        3Au8px        3Au9pz        3Au9py        3Au9px        3Au1d-2       3Au1d-1       3Au1d0        3Au1d+1   
   40    3Au1d+2       3Au2d-2       3Au2d-1       3Au2d0        3Au2d+1       3Au2d+2       3Au3d-2       3Au3d-1       3Au3d0        3Au3d+1   
   41    3Au3d+2       3Au4d-2       3Au4d-1       3Au4d0        3Au4d+1       3Au4d+2       3Au5d-2       3Au5d-1       3Au5d0        3Au5d+1   
   42    3Au5d+2       3Au6d-2       3Au6d-1       3Au6d0        3Au6d+1       3Au6d+2       3Au7d-2       3Au7d-1       3Au7d0        3Au7d+1   
   43    3Au7d+2       3Au8d-2       3Au8d-1       3Au8d0        3Au8d+1       3Au8d+2       3Au1f-3       3Au1f-2       3Au1f-1       3Au1f0    
   44    3Au1f+1       3Au1f+2       3Au1f+3       3Au2f-3       3Au2f-2       3Au2f-1       3Au2f0        3Au2f+1       3Au2f+2       3Au2f+3   
   45    3Au3f-3       3Au3f-2       3Au3f-1       3Au3f0        3Au3f+1       3Au3f+2       3Au3f+3       3Au4f-3       3Au4f-2       3Au4f-1   
   46    3Au4f0        3Au4f+1       3Au4f+2       3Au4f+3       3Au5f-3       3Au5f-2       3Au5f-1       3Au5f0        3Au5f+1       3Au5f+2   
   47    3Au5f+3       3Au1g-4       3Au1g-3       3Au1g-2       3Au1g-1       3Au1g0        3Au1g+1       3Au1g+2       3Au1g+3       3Au1g+4   
   48    3Au2g-4       3Au2g-3       3Au2g-2       3Au2g-1       3Au2g0        3Au2g+1       3Au2g+2       3Au2g+3       3Au2g+4       3Au3g-4   
   49    3Au3g-3       3Au3g-2       3Au3g-1       3Au3g0        3Au3g+1       3Au3g+2       3Au3g+3       3Au3g+4       3Au4g-4       3Au4g-3   
   50    3Au4g-2       3Au4g-1       3Au4g0        3Au4g+1       3Au4g+2       3Au4g+3       3Au4g+4       3Au1h-5       3Au1h-4       3Au1h-3   
   51    3Au1h-2       3Au1h-1       3Au1h0        3Au1h+1       3Au1h+2       3Au1h+3       3Au1h+4       3Au1h+5       3Au2h-5       3Au2h-4   
   52    3Au2h-3       3Au2h-2       3Au2h-1       3Au2h0        3Au2h+1       3Au2h+2       3Au2h+3       3Au2h+4       3Au2h+5       3Au3h-5   
   53    3Au3h-4       3Au3h-3       3Au3h-2       3Au3h-1       3Au3h0        3Au3h+1       3Au3h+2       3Au3h+3       3Au3h+4       3Au3h+5   
   54    4Au1s         4Au2s         4Au3s         4Au4s         4Au5s         4Au6s         4Au7s         4Au8s         4Au9s         4Au1pz    
   55    4Au1py        4Au1px        4Au2pz        4Au2py        4Au2px        4Au3pz        4Au3py        4Au3px        4Au4pz        4Au4py    
   56    4Au4px        4Au5pz        4Au5py        4Au5px        4Au6pz        4Au6py        4Au6px        4Au7pz        4Au7py        4Au7px    
   57    4Au8pz        4Au8py        4Au8px        4Au9pz        4Au9py        4Au9px        4Au1d-2       4Au1d-1       4Au1d0        4Au1d+1   
   58    4Au1d+2       4Au2d-2       4Au2d-1       4Au2d0        4Au2d+1       4Au2d+2       4Au3d-2       4Au3d-1       4Au3d0        4Au3d+1   
   59    4Au3d+2       4Au4d-2       4Au4d-1       4Au4d0        4Au4d+1       4Au4d+2       4Au5d-2       4Au5d-1       4Au5d0        4Au5d+1   
   60    4Au5d+2       4Au6d-2       4Au6d-1       4Au6d0        4Au6d+1       4Au6d+2       4Au7d-2       4Au7d-1       4Au7d0        4Au7d+1   
   61    4Au7d+2       4Au8d-2       4Au8d-1       4Au8d0        4Au8d+1       4Au8d+2       4Au1f-3       4Au1f-2       4Au1f-1       4Au1f0    
   62    4Au1f+1       4Au1f+2       4Au1f+3       4Au2f-3       4Au2f-2       4Au2f-1       4Au2f0        4Au2f+1       4Au2f+2       4Au2f+3   
   63    4Au3f-3       4Au3f-2       4Au3f-1       4Au3f0        4Au3f+1       4Au3f+2       4Au3f+3       4Au4f-3       4Au4f-2       4Au4f-1   
   64    4Au4f0        4Au4f+1       4Au4f+2       4Au4f+3       4Au5f-3       4Au5f-2       4Au5f-1       4Au5f0        4Au5f+1       4Au5f+2   
   65    4Au5f+3       4Au1g-4       4Au1g-3       4Au1g-2       4Au1g-1       4Au1g0        4Au1g+1       4Au1g+2       4Au1g+3       4Au1g+4   
   66    4Au2g-4       4Au2g-3       4Au2g-2       4Au2g-1       4Au2g0        4Au2g+1       4Au2g+2       4Au2g+3       4Au2g+4       4Au3g-4   
   67    4Au3g-3       4Au3g-2       4Au3g-1       4Au3g0        4Au3g+1       4Au3g+2       4Au3g+3       4Au3g+4       4Au4g-4       4Au4g-3   
   68    4Au4g-2       4Au4g-1       4Au4g0        4Au4g+1       4Au4g+2       4Au4g+3       4Au4g+4       4Au1h-5       4Au1h-4       4Au1h-3   
   69    4Au1h-2       4Au1h-1       4Au1h0        4Au1h+1       4Au1h+2       4Au1h+3       4Au1h+4       4Au1h+5       4Au2h-5       4Au2h-4   
   70    4Au2h-3       4Au2h-2       4Au2h-1       4Au2h0        4Au2h+1       4Au2h+2       4Au2h+3       4Au2h+4       4Au2h+5       4Au3h-5   
   71    4Au3h-4       4Au3h-3       4Au3h-2       4Au3h-1       4Au3h0        4Au3h+1       4Au3h+2       4Au3h+3       4Au3h+4       4Au3h+5   
 
 Maximum number of basis functions per shell:   40
 Total number of basis functions:    720
 
 
 Fitting basis set for the SCF calculation:
 
   1  Au def2-qzvpp-ri-jk [ 13s 12p 11d 9f 5g 3h 2i | 13s 11p 10d 8f 4g 3h 2i ]
   2  Au def2-qzvpp-ri-jk [ 13s 12p 11d 9f 5g 3h 2i | 13s 11p 10d 8f 4g 3h 2i ]
   3  Au def2-qzvpp-ri-jk [ 13s 12p 11d 9f 5g 3h 2i | 13s 11p 10d 8f 4g 3h 2i ]
   4  Au def2-qzvpp-ri-jk [ 13s 12p 11d 9f 5g 3h 2i | 13s 11p 10d 8f 4g 3h 2i ]
 
 Basis functions:
            1             2             3             4             5             6             7             8             9            10
    0    1Au1s         1Au2s         1Au3s         1Au4s         1Au5s         1Au6s         1Au7s         1Au8s         1Au9s         1Au10s    
    1    1Au11s        1Au12s        1Au13s        1Au1pz        1Au1py        1Au1px        1Au2pz        1Au2py        1Au2px        1Au3pz    
    2    1Au3py        1Au3px        1Au4pz        1Au4py        1Au4px        1Au5pz        1Au5py        1Au5px        1Au6pz        1Au6py    
    3    1Au6px        1Au7pz        1Au7py        1Au7px        1Au8pz        1Au8py        1Au8px        1Au9pz        1Au9py        1Au9px    
    4    1Au10pz       1Au10py       1Au10px       1Au11pz       1Au11py       1Au11px       1Au1d-2       1Au1d-1       1Au1d0        1Au1d+1   
    5    1Au1d+2       1Au2d-2       1Au2d-1       1Au2d0        1Au2d+1       1Au2d+2       1Au3d-2       1Au3d-1       1Au3d0        1Au3d+1   
    6    1Au3d+2       1Au4d-2       1Au4d-1       1Au4d0        1Au4d+1       1Au4d+2       1Au5d-2       1Au5d-1       1Au5d0        1Au5d+1   
    7    1Au5d+2       1Au6d-2       1Au6d-1       1Au6d0        1Au6d+1       1Au6d+2       1Au7d-2       1Au7d-1       1Au7d0        1Au7d+1   
    8    1Au7d+2       1Au8d-2       1Au8d-1       1Au8d0        1Au8d+1       1Au8d+2       1Au9d-2       1Au9d-1       1Au9d0        1Au9d+1   
    9    1Au9d+2       1Au10d-2      1Au10d-1      1Au10d0       1Au10d+1      1Au10d+2      1Au1f-3       1Au1f-2       1Au1f-1       1Au1f0    
   10    1Au1f+1       1Au1f+2       1Au1f+3       1Au2f-3       1Au2f-2       1Au2f-1       1Au2f0        1Au2f+1       1Au2f+2       1Au2f+3   
   11    1Au3f-3       1Au3f-2       1Au3f-1       1Au3f0        1Au3f+1       1Au3f+2       1Au3f+3       1Au4f-3       1Au4f-2       1Au4f-1   
   12    1Au4f0        1Au4f+1       1Au4f+2       1Au4f+3       1Au5f-3       1Au5f-2       1Au5f-1       1Au5f0        1Au5f+1       1Au5f+2   
   13    1Au5f+3       1Au6f-3       1Au6f-2       1Au6f-1       1Au6f0        1Au6f+1       1Au6f+2       1Au6f+3       1Au7f-3       1Au7f-2   
   14    1Au7f-1       1Au7f0        1Au7f+1       1Au7f+2       1Au7f+3       1Au8f-3       1Au8f-2       1Au8f-1       1Au8f0        1Au8f+1   
   15    1Au8f+2       1Au8f+3       1Au1g-4       1Au1g-3       1Au1g-2       1Au1g-1       1Au1g0        1Au1g+1       1Au1g+2       1Au1g+3   
   16    1Au1g+4       1Au2g-4       1Au2g-3       1Au2g-2       1Au2g-1       1Au2g0        1Au2g+1       1Au2g+2       1Au2g+3       1Au2g+4   
   17    1Au3g-4       1Au3g-3       1Au3g-2       1Au3g-1       1Au3g0        1Au3g+1       1Au3g+2       1Au3g+3       1Au3g+4       1Au4g-4   
   18    1Au4g-3       1Au4g-2       1Au4g-1       1Au4g0        1Au4g+1       1Au4g+2       1Au4g+3       1Au4g+4       1Au1h-5       1Au1h-4   
   19    1Au1h-3       1Au1h-2       1Au1h-1       1Au1h0        1Au1h+1       1Au1h+2       1Au1h+3       1Au1h+4       1Au1h+5       1Au2h-5   
   20    1Au2h-4       1Au2h-3       1Au2h-2       1Au2h-1       1Au2h0        1Au2h+1       1Au2h+2       1Au2h+3       1Au2h+4       1Au2h+5   
   21    1Au3h-5       1Au3h-4       1Au3h-3       1Au3h-2       1Au3h-1       1Au3h0        1Au3h+1       1Au3h+2       1Au3h+3       1Au3h+4   
   22    1Au3h+5       1Au1i-6       1Au1i-5       1Au1i-4       1Au1i-3       1Au1i-2       1Au1i-1       1Au1i0        1Au1i+1       1Au1i+2   
   23    1Au1i+3       1Au1i+4       1Au1i+5       1Au1i+6       1Au2i-6       1Au2i-5       1Au2i-4       1Au2i-3       1Au2i-2       1Au2i-1   
   24    1Au2i0        1Au2i+1       1Au2i+2       1Au2i+3       1Au2i+4       1Au2i+5       1Au2i+6       2Au1s         2Au2s         2Au3s     
   25    2Au4s         2Au5s         2Au6s         2Au7s         2Au8s         2Au9s         2Au10s        2Au11s        2Au12s        2Au13s    
   26    2Au1pz        2Au1py        2Au1px        2Au2pz        2Au2py        2Au2px        2Au3pz        2Au3py        2Au3px        2Au4pz    
   27    2Au4py        2Au4px        2Au5pz        2Au5py        2Au5px        2Au6pz        2Au6py        2Au6px        2Au7pz        2Au7py    
   28    2Au7px        2Au8pz        2Au8py        2Au8px        2Au9pz        2Au9py        2Au9px        2Au10pz       2Au10py       2Au10px   
   29    2Au11pz       2Au11py       2Au11px       2Au1d-2       2Au1d-1       2Au1d0        2Au1d+1       2Au1d+2       2Au2d-2       2Au2d-1   
   30    2Au2d0        2Au2d+1       2Au2d+2       2Au3d-2       2Au3d-1       2Au3d0        2Au3d+1       2Au3d+2       2Au4d-2       2Au4d-1   
   31    2Au4d0        2Au4d+1       2Au4d+2       2Au5d-2       2Au5d-1       2Au5d0        2Au5d+1       2Au5d+2       2Au6d-2       2Au6d-1   
   32    2Au6d0        2Au6d+1       2Au6d+2       2Au7d-2       2Au7d-1       2Au7d0        2Au7d+1       2Au7d+2       2Au8d-2       2Au8d-1   
   33    2Au8d0        2Au8d+1       2Au8d+2       2Au9d-2       2Au9d-1       2Au9d0        2Au9d+1       2Au9d+2       2Au10d-2      2Au10d-1  
   34    2Au10d0       2Au10d+1      2Au10d+2      2Au1f-3       2Au1f-2       2Au1f-1       2Au1f0        2Au1f+1       2Au1f+2       2Au1f+3   
   35    2Au2f-3       2Au2f-2       2Au2f-1       2Au2f0        2Au2f+1       2Au2f+2       2Au2f+3       2Au3f-3       2Au3f-2       2Au3f-1   
   36    2Au3f0        2Au3f+1       2Au3f+2       2Au3f+3       2Au4f-3       2Au4f-2       2Au4f-1       2Au4f0        2Au4f+1       2Au4f+2   
   37    2Au4f+3       2Au5f-3       2Au5f-2       2Au5f-1       2Au5f0        2Au5f+1       2Au5f+2       2Au5f+3       2Au6f-3       2Au6f-2   
   38    2Au6f-1       2Au6f0        2Au6f+1       2Au6f+2       2Au6f+3       2Au7f-3       2Au7f-2       2Au7f-1       2Au7f0        2Au7f+1   
   39    2Au7f+2       2Au7f+3       2Au8f-3       2Au8f-2       2Au8f-1       2Au8f0        2Au8f+1       2Au8f+2       2Au8f+3       2Au1g-4   
   40    2Au1g-3       2Au1g-2       2Au1g-1       2Au1g0        2Au1g+1       2Au1g+2       2Au1g+3       2Au1g+4       2Au2g-4       2Au2g-3   
   41    2Au2g-2       2Au2g-1       2Au2g0        2Au2g+1       2Au2g+2       2Au2g+3       2Au2g+4       2Au3g-4       2Au3g-3       2Au3g-2   
[...]
  103    3Au7d-2       3Au7d-1       3Au7d0        3Au7d+1       3Au7d+2       3Au8d-2       3Au8d-1       3Au8d0        3Au8d+1       3Au8d+2   
  104    3Au9d-2       3Au9d-1       3Au9d0        3Au9d+1       3Au9d+2       3Au10d-2      3Au10d-1      3Au10d0       3Au10d+1      3Au10d+2  
  105    3Au11d-2      3Au11d-1      3Au11d0       3Au11d+1      3Au11d+2      3Au12d-2      3Au12d-1      3Au12d0       3Au12d+1      3Au12d+2  
  106    3Au1f-3       3Au1f-2       3Au1f-1       3Au1f0        3Au1f+1       3Au1f+2       3Au1f+3       3Au2f-3       3Au2f-2       3Au2f-1   
  107    3Au2f0        3Au2f+1       3Au2f+2       3Au2f+3       3Au3f-3       3Au3f-2       3Au3f-1       3Au3f0        3Au3f+1       3Au3f+2   
  108    3Au3f+3       3Au4f-3       3Au4f-2       3Au4f-1       3Au4f0        3Au4f+1       3Au4f+2       3Au4f+3       3Au5f-3       3Au5f-2   
  109    3Au5f-1       3Au5f0        3Au5f+1       3Au5f+2       3Au5f+3       3Au6f-3       3Au6f-2       3Au6f-1       3Au6f0        3Au6f+1   
  110    3Au6f+2       3Au6f+3       3Au7f-3       3Au7f-2       3Au7f-1       3Au7f0        3Au7f+1       3Au7f+2       3Au7f+3       3Au8f-3   
  111    3Au8f-2       3Au8f-1       3Au8f0        3Au8f+1       3Au8f+2       3Au8f+3       3Au9f-3       3Au9f-2       3Au9f-1       3Au9f0    
  112    3Au9f+1       3Au9f+2       3Au9f+3       3Au10f-3      3Au10f-2      3Au10f-1      3Au10f0       3Au10f+1      3Au10f+2      3Au10f+3  
  113    3Au1g-4       3Au1g-3       3Au1g-2       3Au1g-1       3Au1g0        3Au1g+1       3Au1g+2       3Au1g+3       3Au1g+4       3Au2g-4   
  114    3Au2g-3       3Au2g-2       3Au2g-1       3Au2g0        3Au2g+1       3Au2g+2       3Au2g+3       3Au2g+4       3Au3g-4       3Au3g-3   
  115    3Au3g-2       3Au3g-1       3Au3g0        3Au3g+1       3Au3g+2       3Au3g+3       3Au3g+4       3Au4g-4       3Au4g-3       3Au4g-2   
  116    3Au4g-1       3Au4g0        3Au4g+1       3Au4g+2       3Au4g+3       3Au4g+4       3Au5g-4       3Au5g-3       3Au5g-2       3Au5g-1   
  117    3Au5g0        3Au5g+1       3Au5g+2       3Au5g+3       3Au5g+4       3Au6g-4       3Au6g-3       3Au6g-2       3Au6g-1       3Au6g0    
  118    3Au6g+1       3Au6g+2       3Au6g+3       3Au6g+4       3Au7g-4       3Au7g-3       3Au7g-2       3Au7g-1       3Au7g0        3Au7g+1   
  119    3Au7g+2       3Au7g+3       3Au7g+4       3Au8g-4       3Au8g-3       3Au8g-2       3Au8g-1       3Au8g0        3Au8g+1       3Au8g+2   
  120    3Au8g+3       3Au8g+4       3Au9g-4       3Au9g-3       3Au9g-2       3Au9g-1       3Au9g0        3Au9g+1       3Au9g+2       3Au9g+3   
  121    3Au9g+4       3Au10g-4      3Au10g-3      3Au10g-2      3Au10g-1      3Au10g0       3Au10g+1      3Au10g+2      3Au10g+3      3Au10g+4  
  122    3Au1h-5       3Au1h-4       3Au1h-3       3Au1h-2       3Au1h-1       3Au1h0        3Au1h+1       3Au1h+2       3Au1h+3       3Au1h+4   
  123    3Au1h+5       3Au2h-5       3Au2h-4       3Au2h-3       3Au2h-2       3Au2h-1       3Au2h0        3Au2h+1       3Au2h+2       3Au2h+3   
  124    3Au2h+4       3Au2h+5       3Au3h-5       3Au3h-4       3Au3h-3       3Au3h-2       3Au3h-1       3Au3h0        3Au3h+1       3Au3h+2   
  125    3Au3h+3       3Au3h+4       3Au3h+5       3Au4h-5       3Au4h-4       3Au4h-3       3Au4h-2       3Au4h-1       3Au4h0        3Au4h+1   
  126    3Au4h+2       3Au4h+3       3Au4h+4       3Au4h+5       3Au5h-5       3Au5h-4       3Au5h-3       3Au5h-2       3Au5h-1       3Au5h0    
  127    3Au5h+1       3Au5h+2       3Au5h+3       3Au5h+4       3Au5h+5       3Au6h-5       3Au6h-4       3Au6h-3       3Au6h-2       3Au6h-1   
  128    3Au6h0        3Au6h+1       3Au6h+2       3Au6h+3       3Au6h+4       3Au6h+5       3Au7h-5       3Au7h-4       3Au7h-3       3Au7h-2   
  129    3Au7h-1       3Au7h0        3Au7h+1       3Au7h+2       3Au7h+3       3Au7h+4       3Au7h+5       3Au1i-6       3Au1i-5       3Au1i-4   
  130    3Au1i-3       3Au1i-2       3Au1i-1       3Au1i0        3Au1i+1       3Au1i+2       3Au1i+3       3Au1i+4       3Au1i+5       3Au1i+6   
  131    3Au2i-6       3Au2i-5       3Au2i-4       3Au2i-3       3Au2i-2       3Au2i-1       3Au2i0        3Au2i+1       3Au2i+2       3Au2i+3   
  132    3Au2i+4       3Au2i+5       3Au2i+6       3Au3i-6       3Au3i-5       3Au3i-4       3Au3i-3       3Au3i-2       3Au3i-1       3Au3i0    
  133    3Au3i+1       3Au3i+2       3Au3i+3       3Au3i+4       3Au3i+5       3Au3i+6       3Au4i-6       3Au4i-5       3Au4i-4       3Au4i-3   
  134    3Au4i-2       3Au4i-1       3Au4i0        3Au4i+1       3Au4i+2       3Au4i+3       3Au4i+4       3Au4i+5       3Au4i+6       3Au5i-6   
  135    3Au5i-5       3Au5i-4       3Au5i-3       3Au5i-2       3Au5i-1       3Au5i0        3Au5i+1       3Au5i+2       3Au5i+3       3Au5i+4   
  136    3Au5i+5       3Au5i+6       3Au1k-7       3Au1k-6       3Au1k-5       3Au1k-4       3Au1k-3       3Au1k-2       3Au1k-1       3Au1k0    
  137    3Au1k+1       3Au1k+2       3Au1k+3       3Au1k+4       3Au1k+5       3Au1k+6       3Au1k+7       3Au2k-7       3Au2k-6       3Au2k-5   
  138    3Au2k-4       3Au2k-3       3Au2k-2       3Au2k-1       3Au2k0        3Au2k+1       3Au2k+2       3Au2k+3       3Au2k+4       3Au2k+5   
  139    3Au2k+6       3Au2k+7       3Au3k-7       3Au3k-6       3Au3k-5       3Au3k-4       3Au3k-3       3Au3k-2       3Au3k-1       3Au3k0    
  140    3Au3k+1       3Au3k+2       3Au3k+3       3Au3k+4       3Au3k+5       3Au3k+6       3Au3k+7       3Au4k-7       3Au4k-6       3Au4k-5   
  141    3Au4k-4       3Au4k-3       3Au4k-2       3Au4k-1       3Au4k0        3Au4k+1       3Au4k+2       3Au4k+3       3Au4k+4       3Au4k+5   
  142    3Au4k+6       3Au4k+7       4Au1s         4Au2s         4Au3s         4Au4s         4Au5s         4Au6s         4Au7s         4Au8s     
  143    4Au9s         4Au10s        4Au11s        4Au12s        4Au13s        4Au1pz        4Au1py        4Au1px        4Au2pz        4Au2py    
  144    4Au2px        4Au3pz        4Au3py        4Au3px        4Au4pz        4Au4py        4Au4px        4Au5pz        4Au5py        4Au5px    
  145    4Au6pz        4Au6py        4Au6px        4Au7pz        4Au7py        4Au7px        4Au8pz        4Au8py        4Au8px        4Au9pz    
  146    4Au9py        4Au9px        4Au10pz       4Au10py       4Au10px       4Au11pz       4Au11py       4Au11px       4Au12pz       4Au12py   
  147    4Au12px       4Au13pz       4Au13py       4Au13px       4Au1d-2       4Au1d-1       4Au1d0        4Au1d+1       4Au1d+2       4Au2d-2   
  148    4Au2d-1       4Au2d0        4Au2d+1       4Au2d+2       4Au3d-2       4Au3d-1       4Au3d0        4Au3d+1       4Au3d+2       4Au4d-2   
  149    4Au4d-1       4Au4d0        4Au4d+1       4Au4d+2       4Au5d-2       4Au5d-1       4Au5d0        4Au5d+1       4Au5d+2       4Au6d-2   
  150    4Au6d-1       4Au6d0        4Au6d+1       4Au6d+2       4Au7d-2       4Au7d-1       4Au7d0        4Au7d+1       4Au7d+2       4Au8d-2   
  151    4Au8d-1       4Au8d0        4Au8d+1       4Au8d+2       4Au9d-2       4Au9d-1       4Au9d0        4Au9d+1       4Au9d+2       4Au10d-2  
  152    4Au10d-1      4Au10d0       4Au10d+1      4Au10d+2      4Au11d-2      4Au11d-1      4Au11d0       4Au11d+1      4Au11d+2      4Au12d-2  
  153    4Au12d-1      4Au12d0       4Au12d+1      4Au12d+2      4Au1f-3       4Au1f-2       4Au1f-1       4Au1f0        4Au1f+1       4Au1f+2   
  154    4Au1f+3       4Au2f-3       4Au2f-2       4Au2f-1       4Au2f0        4Au2f+1       4Au2f+2       4Au2f+3       4Au3f-3       4Au3f-2   
  155    4Au3f-1       4Au3f0        4Au3f+1       4Au3f+2       4Au3f+3       4Au4f-3       4Au4f-2       4Au4f-1       4Au4f0        4Au4f+1   
  156    4Au4f+2       4Au4f+3       4Au5f-3       4Au5f-2       4Au5f-1       4Au5f0        4Au5f+1       4Au5f+2       4Au5f+3       4Au6f-3   
  157    4Au6f-2       4Au6f-1       4Au6f0        4Au6f+1       4Au6f+2       4Au6f+3       4Au7f-3       4Au7f-2       4Au7f-1       4Au7f0    
  158    4Au7f+1       4Au7f+2       4Au7f+3       4Au8f-3       4Au8f-2       4Au8f-1       4Au8f0        4Au8f+1       4Au8f+2       4Au8f+3   
  159    4Au9f-3       4Au9f-2       4Au9f-1       4Au9f0        4Au9f+1       4Au9f+2       4Au9f+3       4Au10f-3      4Au10f-2      4Au10f-1  
  160    4Au10f0       4Au10f+1      4Au10f+2      4Au10f+3      4Au1g-4       4Au1g-3       4Au1g-2       4Au1g-1       4Au1g0        4Au1g+1   
  161    4Au1g+2       4Au1g+3       4Au1g+4       4Au2g-4       4Au2g-3       4Au2g-2       4Au2g-1       4Au2g0        4Au2g+1       4Au2g+2   
  162    4Au2g+3       4Au2g+4       4Au3g-4       4Au3g-3       4Au3g-2       4Au3g-1       4Au3g0        4Au3g+1       4Au3g+2       4Au3g+3   
  163    4Au3g+4       4Au4g-4       4Au4g-3       4Au4g-2       4Au4g-1       4Au4g0        4Au4g+1       4Au4g+2       4Au4g+3       4Au4g+4   
  164    4Au5g-4       4Au5g-3       4Au5g-2       4Au5g-1       4Au5g0        4Au5g+1       4Au5g+2       4Au5g+3       4Au5g+4       4Au6g-4   
  165    4Au6g-3       4Au6g-2       4Au6g-1       4Au6g0        4Au6g+1       4Au6g+2       4Au6g+3       4Au6g+4       4Au7g-4       4Au7g-3   
  166    4Au7g-2       4Au7g-1       4Au7g0        4Au7g+1       4Au7g+2       4Au7g+3       4Au7g+4       4Au8g-4       4Au8g-3       4Au8g-2   
  167    4Au8g-1       4Au8g0        4Au8g+1       4Au8g+2       4Au8g+3       4Au8g+4       4Au9g-4       4Au9g-3       4Au9g-2       4Au9g-1   
  168    4Au9g0        4Au9g+1       4Au9g+2       4Au9g+3       4Au9g+4       4Au10g-4      4Au10g-3      4Au10g-2      4Au10g-1      4Au10g0   
  169    4Au10g+1      4Au10g+2      4Au10g+3      4Au10g+4      4Au1h-5       4Au1h-4       4Au1h-3       4Au1h-2       4Au1h-1       4Au1h0    
  170    4Au1h+1       4Au1h+2       4Au1h+3       4Au1h+4       4Au1h+5       4Au2h-5       4Au2h-4       4Au2h-3       4Au2h-2       4Au2h-1   
  171    4Au2h0        4Au2h+1       4Au2h+2       4Au2h+3       4Au2h+4       4Au2h+5       4Au3h-5       4Au3h-4       4Au3h-3       4Au3h-2   
  172    4Au3h-1       4Au3h0        4Au3h+1       4Au3h+2       4Au3h+3       4Au3h+4       4Au3h+5       4Au4h-5       4Au4h-4       4Au4h-3   
  173    4Au4h-2       4Au4h-1       4Au4h0        4Au4h+1       4Au4h+2       4Au4h+3       4Au4h+4       4Au4h+5       4Au5h-5       4Au5h-4   
  174    4Au5h-3       4Au5h-2       4Au5h-1       4Au5h0        4Au5h+1       4Au5h+2       4Au5h+3       4Au5h+4       4Au5h+5       4Au6h-5   
  175    4Au6h-4       4Au6h-3       4Au6h-2       4Au6h-1       4Au6h0        4Au6h+1       4Au6h+2       4Au6h+3       4Au6h+4       4Au6h+5   
  176    4Au7h-5       4Au7h-4       4Au7h-3       4Au7h-2       4Au7h-1       4Au7h0        4Au7h+1       4Au7h+2       4Au7h+3       4Au7h+4   
  177    4Au7h+5       4Au1i-6       4Au1i-5       4Au1i-4       4Au1i-3       4Au1i-2       4Au1i-1       4Au1i0        4Au1i+1       4Au1i+2   
  178    4Au1i+3       4Au1i+4       4Au1i+5       4Au1i+6       4Au2i-6       4Au2i-5       4Au2i-4       4Au2i-3       4Au2i-2       4Au2i-1   
  179    4Au2i0        4Au2i+1       4Au2i+2       4Au2i+3       4Au2i+4       4Au2i+5       4Au2i+6       4Au3i-6       4Au3i-5       4Au3i-4   
  180    4Au3i-3       4Au3i-2       4Au3i-1       4Au3i0        4Au3i+1       4Au3i+2       4Au3i+3       4Au3i+4       4Au3i+5       4Au3i+6   
  181    4Au4i-6       4Au4i-5       4Au4i-4       4Au4i-3       4Au4i-2       4Au4i-1       4Au4i0        4Au4i+1       4Au4i+2       4Au4i+3   
  182    4Au4i+4       4Au4i+5       4Au4i+6       4Au5i-6       4Au5i-5       4Au5i-4       4Au5i-3       4Au5i-2       4Au5i-1       4Au5i0    
  183    4Au5i+1       4Au5i+2       4Au5i+3       4Au5i+4       4Au5i+5       4Au5i+6       4Au1k-7       4Au1k-6       4Au1k-5       4Au1k-4   
  184    4Au1k-3       4Au1k-2       4Au1k-1       4Au1k0        4Au1k+1       4Au1k+2       4Au1k+3       4Au1k+4       4Au1k+5       4Au1k+6   
  185    4Au1k+7       4Au2k-7       4Au2k-6       4Au2k-5       4Au2k-4       4Au2k-3       4Au2k-2       4Au2k-1       4Au2k0        4Au2k+1   
  186    4Au2k+2       4Au2k+3       4Au2k+4       4Au2k+5       4Au2k+6       4Au2k+7       4Au3k-7       4Au3k-6       4Au3k-5       4Au3k-4   
  187    4Au3k-3       4Au3k-2       4Au3k-1       4Au3k0        4Au3k+1       4Au3k+2       4Au3k+3       4Au3k+4       4Au3k+5       4Au3k+6   
  188    4Au3k+7       4Au4k-7       4Au4k-6       4Au4k-5       4Au4k-4       4Au4k-3       4Au4k-2       4Au4k-1       4Au4k0        4Au4k+1   
  189    4Au4k+2       4Au4k+3       4Au4k+4       4Au4k+5       4Au4k+6       4Au4k+7   
 
 Maximum number of basis functions per shell:   90
 Total number of basis functions:   1896
 
 
 Old basis set for SCF restart
 
   1  Au def2-svp [ 7s 6p 5d 1f | 6s 3p 2d 1f ]
   2  Au def2-svp [ 7s 6p 5d 1f | 6s 3p 2d 1f ]
   3  Au def2-svp [ 7s 6p 5d 1f | 6s 3p 2d 1f ]
   4  Au def2-svp [ 7s 6p 5d 1f | 6s 3p 2d 1f ]
 
 Basis functions:
            1             2             3             4             5             6             7             8             9            10
    0    1Au1s         1Au2s         1Au3s         1Au4s         1Au5s         1Au6s         1Au1pz        1Au1py        1Au1px        1Au2pz    
    1    1Au2py        1Au2px        1Au3pz        1Au3py        1Au3px        1Au1d-2       1Au1d-1       1Au1d0        1Au1d+1       1Au1d+2   
    2    1Au2d-2       1Au2d-1       1Au2d0        1Au2d+1       1Au2d+2       1Au1f-3       1Au1f-2       1Au1f-1       1Au1f0        1Au1f+1   
    3    1Au1f+2       1Au1f+3       2Au1s         2Au2s         2Au3s         2Au4s         2Au5s         2Au6s         2Au1pz        2Au1py    
    4    2Au1px        2Au2pz        2Au2py        2Au2px        2Au3pz        2Au3py        2Au3px        2Au1d-2       2Au1d-1       2Au1d0    
    5    2Au1d+1       2Au1d+2       2Au2d-2       2Au2d-1       2Au2d0        2Au2d+1       2Au2d+2       2Au1f-3       2Au1f-2       2Au1f-1   
    6    2Au1f0        2Au1f+1       2Au1f+2       2Au1f+3       3Au1s         3Au2s         3Au3s         3Au4s         3Au5s         3Au6s     
    7    3Au1pz        3Au1py        3Au1px        3Au2pz        3Au2py        3Au2px        3Au3pz        3Au3py        3Au3px        3Au1d-2   
    8    3Au1d-1       3Au1d0        3Au1d+1       3Au1d+2       3Au2d-2       3Au2d-1       3Au2d0        3Au2d+1       3Au2d+2       3Au1f-3   
    9    3Au1f-2       3Au1f-1       3Au1f0        3Au1f+1       3Au1f+2       3Au1f+3       4Au1s         4Au2s         4Au3s         4Au4s     
   10    4Au5s         4Au6s         4Au1pz        4Au1py        4Au1px        4Au2pz        4Au2py        4Au2px        4Au3pz        4Au3py    
   11    4Au3px        4Au1d-2       4Au1d-1       4Au1d0        4Au1d+1       4Au1d+2       4Au2d-2       4Au2d-1       4Au2d0        4Au2d+1   
   12    4Au2d+2       4Au1f-3       4Au1f-2       4Au1f-1       4Au1f0        4Au1f+1       4Au1f+2       4Au1f+3   
 
 Maximum number of basis functions per shell:   90
 Total number of basis functions:    128
 
 
 Effective core potentials:
 
   1  Au mcdhf-ecp-60        
   2  Au mcdhf-ecp-60        
   3  Au mcdhf-ecp-60        
   4  Au mcdhf-ecp-60        
 
 Calculation of prescreening integrals...
 CPU time [min]:    15.276                   Wall time [min]:     0.959
 
 Calculation of two-center Coulomb integrals...
   1% done.
  12% done.
  25% done.
  36% done.
  47% done.
  60% done.
  72% done.
  87% done.
 100% done.
 CPU time [min]:    15.311                   Wall time [min]:     0.961
 
 Calculation of inverse square root of the two-center integral matrix...
 CPU time [min]:    15.510                   Wall time [min]:     0.969
 
 Calculation of three-center Coulomb integrals...
   1% done.
  13% done.
  25% done.
  37% done.
  50% done.
  64% done.
  82% done.
 100% done.
 CPU time [min]:    22.665                   Wall time [min]:     1.350

 ************************ 2022-11-01 10:43:35 *************************
 Executing drpa...

 Three-index integral transformation
 
 Allocation of 150.0 Gbytes of memory...
 Minimal memory requirement for (ai|P) and (ij|P) integrals:       44.6 MB

 Calculating (ai|P) and (ij|P) integrals...
 Number of integral batches:    1
 Occupied indices per batch:   38
 
 Transforming integrals of batch 1...
 CPU time [min]:     4.009                   Wall time [min]:     0.227

 Calculating (ab|P) integrals...
 Minimal memory requirement for (ab|P) integrals:       34.2 MB
 Number of integral batches:    1
 Virtual indices per batch:   682

 Transforming integrals of batch 1...
 CPU time [min]:    65.525                   Wall time [min]:     3.280

 ************************ 2022-11-01 10:46:56 *************************
 Executing ccsd...

 Allocation of 150.0 Gbytes of memory...

 Direct DF-CCSD(T) calculation
 
 Convergence criterion:  1.0E-06
 
 Number of occupied/virtual/auxiliary orbitals:    38   682  1896
  54369.17 MB is the minimal memory requirement for (T)
  15341.07 MB is the minimal memory requirement for CCSD
 
 Reference energy [au]:            -539.193610462297
 T1 contribution [au]:                0.000000000000
 Same spin MP2 energy [au]:          -1.040819454403
 Opposite spin MP2 energy [au]:      -2.307150593571
 MP2 correlation energy [au]:        -3.347970047974
 Total MP2 energy [au]:            -542.541580510272
 
 
 CPU time [min]:     6.403                   Wall time [min]:     2.355
 
 Starting CCSD iterations...
 
                     Residual norm          Energy
 Iteration  1        0.570889794218     -542.173621963175
 Iteration  2        0.199603490681     -542.281022670534
 Iteration  3        0.042246811426     -542.301044008688
 Iteration  4        0.024000085275     -542.300505922496
 Iteration  5        0.010605451170     -542.298013608048
 Iteration  6        0.006936674083     -542.297585960972
 Iteration  7        0.003548309912     -542.298348652877
 Iteration  8        0.002274939879     -542.298609233920
 Iteration  9        0.001099677780     -542.298520322495
 Iteration 10        0.000704151927     -542.298511879602
 Iteration 11        0.000328183614     -542.298516359883
 Iteration 12        0.000199671253     -542.298504391382
 Iteration 13        0.000103430508     -542.298507520437
 Iteration 14        0.000061730412     -542.298513078895
 Iteration 15        0.000031385706     -542.298512706047
 Iteration 16        0.000016679746     -542.298511445466
 Iteration 17        0.000008131985     -542.298511420709
 Iteration 18        0.000004053573     -542.298511679491
 
 CCSD iteration has converged in 18 steps.
   153598.85 MB memory was utilized by CCSD
 
 T1 diagnostic:      1.853E-02            D1 diagnostic:      9.181E-02
 
 T1 contribution [au]:                                  0.000000000000
 Opposite spin CCSD energy [au]:                       -2.222826122148
 Same spin CCSD energy [au]:                           -0.882075095045
 CCSD correlation energy [au]:                         -3.104901217194
 Total CCSD energy [au]:                             -542.298511679491
 
 CPU time [min]:  7809.962                   Wall time [min]:   426.770
 
 Calculation of (T) correction...
 
 
   134113.84 MB memory is utilized for (T)

 0%       25%       50%       75%       100%
 |---------|---------|---------|---------| 
 
 (T) correction [au]:                                    -0.147770860149
 CCSD(T) correlation energy [au]:                        -3.252672077342
 Total CCSD(T) energy [au]:                            -542.446282539640
 
 CPU time [min]: 28693.566                   Wall time [min]:  1315.159
 
 ************************ 2022-11-02 08:42:17 *************************
                      Normal termination of mrcc.
 **********************************************************************
