 **********************************************************************
                          MRCC program system
 **********************************************************************
 
                              Written by
     Mihaly Kallay, Peter R. Nagy, David Mester, Laszlo Gyevi-Nagy,
        Jozsef Csoka, P. Bernat Szabo, Zoltan Rolik, Gyula Samu,
     Jozsef Csontos, Bence Hegely, Adam Ganyecz, Istvan Ladjanszki,
       Lorant Szegedy, Bence Ladoczki, Klara Petrov, Mate Farkas,
                    Pal D. Mezei, and Reka A. Horvath
 
        Department of Physical Chemistry and Materials Science
            Budapest University of Technology and Economics
                  Budapest P.O.Box 91, H-1521 Hungary
 
                              www.mrcc.hu
 
                      Release date: March 18, 2022

 ************************ 2023-10-21 21:34:57 *************************
 Executing minp...

 Reading input from MINP...
 
 Input file:
 
calc=PBE0
verbosity=3
mem=220GB
symm=off
unit=angs
scfiguess=small
scfalg=locfit1
ECP=MCDHF-ECP-28
basis=bse_ACVTZ
basis_sm=def2-SVP
dfbasis_scf=def2-QZVPP-RI-JK
dfbasis_cor=bse_ACVTZ_mp2fit
scfalg=locfit1
core=0
unit=angs
geom=xyz
4
Ag4_3
Ag    -3.91519123     0.00000000     0.00000000
Ag    -1.33903965     0.00000000     0.00000000
Ag     1.33903965     0.00000000     0.00000000
Ag     3.91519123     0.00000000     0.00000000

ghost=serialno


 
 
 Checking keyword combinations...
 
 Keywords:
 
 active=none
 agrid=ld0006-ld0590
 agrid_pssp=ld0006-ld0194
 agrid_pssp_sm=ld0006-ld0074
 basis=bse_acvtz
 basis_sm=def2-svp
 basopt=off
 bfbasis=none
 bfgsmem=10
 bfgstol=1.0d-3
 bpcompo=0.985
 bpcompv=0.98
 bpdfo=0.985
 bpocc=0.985
 bppdo=0.985
 bppdv=0.98
 bpedo=0.985
 bpedv=0.98
 calc=scf
 ccmaxit=50
 ccprog=mrcc
 ccsdalg=disk
 ccsdmkl=seq
 ccsdrest=off
 ccsdthreads=2
 cctol=6
 charge=0
 cialg=disk
 ciguess=off
 cmpgrp=auto
 comprest=off
 core=corr
 corembed=off
 csapprox=off
 cvs=off
 dboc=off
 delocsomofact=
 dendec=cholesky
 dens=0
 dfalg=lineq
 dfbasis_cab=none
 dfbasis_cor=bse_acvtz_mp2fit
 dfbasis_scf=def2-qzvpp-ri-jk
 dfbasis_scf_sm=def2-qzvpp-ri-jk
 dfintran=drpa
 dft=pbe0
 dhexc=adc(2)
 diag=david
 docc=
 domrad=10.d0
 drpaalg=fit
 dual=off
 dual_df=off
 ecp=mcdhf-ecp-28
 edisp=off
 edisp_embed=off
 embed=off
 etemp=300
 epert=none
 eps=
 espcharge=off
 excrad=1.0
 excrad_fin=0.100000000D-02
 fitting=coulomb
 fmm=off
 fmmord=8
 freq=off
 gamma=1.d0
 gauss=spher
 geom=xyz
 gopt=off
 ghost=serialno
 gtol=7
 grdens=off
 gridbatch_cos=2000
 grtol=10
 guido_ct=off
 hamilton=dc
 iface=none
 intalg=auto
 itol=10
 laptol=1.d-2
 lccoporder=trffirst
 lcorthr=normal
 lccrest=off
 lmp2dens=on
 lnoepso=0.d0
 lnoepsv=1e-6
 boysalg=jacobi
 localcc=off
 localcorrsymm=off
 locintrf=disk
 mact=
 maxact=off
 maxdim=100
 maxex=0
 maxmicroit=100
 mcscfiguess=hf
 mem=220gb
 mmprog=
 molden=on
 mpitasks=1
 mulmet=0
 mult=
 nacto=0
 nactv=0
 naf_amp=1.d-2
 naf_cor=off
 naf_scf=off
 nafalg=albe
 naftyp=
 nchol=auto
 ndeps=1e-3
 nstate=1
 nsing=0
 nto=off
 ntrip=0
 occ=
 occri=off
 oniom=off
 oniom_eechg=off
 oniom_pcm=off
 oniom_qcorr=off
 optalg=
 optmaxit=50
 optetol=1e-6
 optex=0
 optgtol=1e-4
 optstol=1e-3
 orblocc=off
 orbloce=off
 orbloco=off
 orblocv=off
 orblocguess=cholesky
 osveps=1e-3
 ovirt=off
 ovltol=1e-7
 ovosnorb=80.0
 pcm=off
 popul=off
 pressure=100000
 pssp=off
 ptfreq=0.0
 ptthreads=2
 qro=off
 qscf=off
 qmmm=off
 redcost_exc=off
 redcost_tddft=off
 refdet=none
 rest=0
 rgrid=log3
 rism=off
 rohfcore=semicanonical
 rohftype=standard
 scfalg=locfit1
 scf_conv=difficult
 scfdamp=0.7d0
 scfdamp_mode=1
 scfdamp_end=3
 scfdamp_dampstep=0.d0
 scfdamp_dtol=0.0d0
 scfdamp_maxfact=0.7d0
 scfdamp_minfact=0.7d0
 scfdiis=on
 scfdiis_dtol=0.0d0
 scfdiis_end=50
 scfdiis_start=2
 scfdiis_step=1
 scfdiis_watch=off
 scfdiis_wrange=10
 scfdiis_wlimit=5
 scfdiis_delmax=2
 scfdtol=6
 scfext=10
 scfguessdens=
 scfiguess=small
 scfloc=pm
 scflshift=0.20
 scflshift_end=8
 scflshift_dtol=0.0
 scflshift_gaptol=0.20
 scfmaxit=50
 scftype=
 scftol=6
 scspe=1.d0
 scsph=1.d0
 scsps=1.2d0
 scsps_t=1.2d0
 scspt=0.33333333333333
 scspt_t=0.33333333333333
 scspv=1.d0
 spairtol=1e-4
 sqmprog=
 subminp=top
 symm=0
 talg=occ
 temp=298.15
 test=off
 theodore=off
 tlmo=0.999
 tpao=0.94
 tprint=off
 uncontract=off
 unit=angs
 usedisk=2
 verbosity=3
 wpairtol=0.100000000E-05
 
 Calculating integrals for small-basis SCF...

 ************************ 2023-10-21 21:34:58 *************************
 Executing integ...

 Allocation of 220.0 Gbytes of memory...
 
 
 Number of atoms:                  4
 Charge:                           0
 Number of electrons:             76
 Number of core electrons:        32
 Spin multiplicity:                1
 
                 Cartesian coordinates [bohr]      Atomic mass [AMU]  Z
   1  Ag   -7.39863915    0.00000000    0.00000000   106.905092      47
   2  Ag   -2.53041821    0.00000000    0.00000000   106.905092      47
   3  Ag    2.53041821    0.00000000    0.00000000   106.905092      47
   4  Ag    7.39863915    0.00000000    0.00000000   106.905092      47
 
 This molecule is linear.
 
 Point group: Dxh 
 Computational point group: C1  
 
 Cartesian coordinates in standard orientation [bohr]
   1  Ag    0.00000000    0.00000000   -7.39863915
   2  Ag    0.00000000    0.00000000   -2.53041821
   3  Ag    0.00000000    0.00000000    2.53041821
   4  Ag    0.00000000    0.00000000    7.39863915
 
 Nuclear repulsion energy [au]:        316.753124874413
 
 
 Basis set information:
 
 Maximum angular momentum: i
 Maximum number of contracted Gaussians:   11
 Maximum number of primitive Gaussians:    13
 Spherical harmonic GTOs are used.
 
 
 Conventional basis set:
 
   1  Ag def2-svp [ 7s 6p 5d 1f | 5s 3p 2d 1f ]
   2  Ag def2-svp [ 7s 6p 5d 1f | 5s 3p 2d 1f ]
   3  Ag def2-svp [ 7s 6p 5d 1f | 5s 3p 2d 1f ]
   4  Ag def2-svp [ 7s 6p 5d 1f | 5s 3p 2d 1f ]
 
 Basis functions:
            1             2             3             4             5             6             7             8             9            10
    0    1Ag1s         1Ag2s         1Ag3s         1Ag4s         1Ag5s         1Ag1pz        1Ag1py        1Ag1px        1Ag2pz        1Ag2py    
    1    1Ag2px        1Ag3pz        1Ag3py        1Ag3px        1Ag1d-2       1Ag1d-1       1Ag1d0        1Ag1d+1       1Ag1d+2       1Ag2d-2   
    2    1Ag2d-1       1Ag2d0        1Ag2d+1       1Ag2d+2       1Ag1f-3       1Ag1f-2       1Ag1f-1       1Ag1f0        1Ag1f+1       1Ag1f+2   
    3    1Ag1f+3       2Ag1s         2Ag2s         2Ag3s         2Ag4s         2Ag5s         2Ag1pz        2Ag1py        2Ag1px        2Ag2pz    
    4    2Ag2py        2Ag2px        2Ag3pz        2Ag3py        2Ag3px        2Ag1d-2       2Ag1d-1       2Ag1d0        2Ag1d+1       2Ag1d+2   
    5    2Ag2d-2       2Ag2d-1       2Ag2d0        2Ag2d+1       2Ag2d+2       2Ag1f-3       2Ag1f-2       2Ag1f-1       2Ag1f0        2Ag1f+1   
    6    2Ag1f+2       2Ag1f+3       3Ag1s         3Ag2s         3Ag3s         3Ag4s         3Ag5s         3Ag1pz        3Ag1py        3Ag1px    
    7    3Ag2pz        3Ag2py        3Ag2px        3Ag3pz        3Ag3py        3Ag3px        3Ag1d-2       3Ag1d-1       3Ag1d0        3Ag1d+1   
    8    3Ag1d+2       3Ag2d-2       3Ag2d-1       3Ag2d0        3Ag2d+1       3Ag2d+2       3Ag1f-3       3Ag1f-2       3Ag1f-1       3Ag1f0    
    9    3Ag1f+1       3Ag1f+2       3Ag1f+3       4Ag1s         4Ag2s         4Ag3s         4Ag4s         4Ag5s         4Ag1pz        4Ag1py    
   10    4Ag1px        4Ag2pz        4Ag2py        4Ag2px        4Ag3pz        4Ag3py        4Ag3px        4Ag1d-2       4Ag1d-1       4Ag1d0    
   11    4Ag1d+1       4Ag1d+2       4Ag2d-2       4Ag2d-1       4Ag2d0        4Ag2d+1       4Ag2d+2       4Ag1f-3       4Ag1f-2       4Ag1f-1   
   12    4Ag1f0        4Ag1f+1       4Ag1f+2       4Ag1f+3   
 
 Maximum number of basis functions per shell:   10
 Total number of basis functions:    124
 
 
 Fitting basis set for the SCF calculation:
 
   1  Ag def2-qzvpp-ri-jk [ 13s 12p 10d 9f 6g 3h 2i | 11s 10p 9d 8f 6g 3h 2i ]
   2  Ag def2-qzvpp-ri-jk [ 13s 12p 10d 9f 6g 3h 2i | 11s 10p 9d 8f 6g 3h 2i ]
   3  Ag def2-qzvpp-ri-jk [ 13s 12p 10d 9f 6g 3h 2i | 11s 10p 9d 8f 6g 3h 2i ]
   4  Ag def2-qzvpp-ri-jk [ 13s 12p 10d 9f 6g 3h 2i | 11s 10p 9d 8f 6g 3h 2i ]
 
 Basis functions:
            1             2             3             4             5             6             7             8             9            10
    0    1Ag1s         1Ag2s         1Ag3s         1Ag4s         1Ag5s         1Ag6s         1Ag7s         1Ag8s         1Ag9s         1Ag10s    
    1    1Ag11s        1Ag1pz        1Ag1py        1Ag1px        1Ag2pz        1Ag2py        1Ag2px        1Ag3pz        1Ag3py        1Ag3px    
    2    1Ag4pz        1Ag4py        1Ag4px        1Ag5pz        1Ag5py        1Ag5px        1Ag6pz        1Ag6py        1Ag6px        1Ag7pz    
    3    1Ag7py        1Ag7px        1Ag8pz        1Ag8py        1Ag8px        1Ag9pz        1Ag9py        1Ag9px        1Ag10pz       1Ag10py   
    4    1Ag10px       1Ag1d-2       1Ag1d-1       1Ag1d0        1Ag1d+1       1Ag1d+2       1Ag2d-2       1Ag2d-1       1Ag2d0        1Ag2d+1   
    5    1Ag2d+2       1Ag3d-2       1Ag3d-1       1Ag3d0        1Ag3d+1       1Ag3d+2       1Ag4d-2       1Ag4d-1       1Ag4d0        1Ag4d+1   
    6    1Ag4d+2       1Ag5d-2       1Ag5d-1       1Ag5d0        1Ag5d+1       1Ag5d+2       1Ag6d-2       1Ag6d-1       1Ag6d0        1Ag6d+1   
    7    1Ag6d+2       1Ag7d-2       1Ag7d-1       1Ag7d0        1Ag7d+1       1Ag7d+2       1Ag8d-2       1Ag8d-1       1Ag8d0        1Ag8d+1   
    8    1Ag8d+2       1Ag9d-2       1Ag9d-1       1Ag9d0        1Ag9d+1       1Ag9d+2       1Ag1f-3       1Ag1f-2       1Ag1f-1       1Ag1f0    
    9    1Ag1f+1       1Ag1f+2       1Ag1f+3       1Ag2f-3       1Ag2f-2       1Ag2f-1       1Ag2f0        1Ag2f+1       1Ag2f+2       1Ag2f+3   
   10    1Ag3f-3       1Ag3f-2       1Ag3f-1       1Ag3f0        1Ag3f+1       1Ag3f+2       1Ag3f+3       1Ag4f-3       1Ag4f-2       1Ag4f-1   
   11    1Ag4f0        1Ag4f+1       1Ag4f+2       1Ag4f+3       1Ag5f-3       1Ag5f-2       1Ag5f-1       1Ag5f0        1Ag5f+1       1Ag5f+2   
   12    1Ag5f+3       1Ag6f-3       1Ag6f-2       1Ag6f-1       1Ag6f0        1Ag6f+1       1Ag6f+2       1Ag6f+3       1Ag7f-3       1Ag7f-2   
   13    1Ag7f-1       1Ag7f0        1Ag7f+1       1Ag7f+2       1Ag7f+3       1Ag8f-3       1Ag8f-2       1Ag8f-1       1Ag8f0        1Ag8f+1   
   14    1Ag8f+2       1Ag8f+3       1Ag1g-4       1Ag1g-3       1Ag1g-2       1Ag1g-1       1Ag1g0        1Ag1g+1       1Ag1g+2       1Ag1g+3   
   15    1Ag1g+4       1Ag2g-4       1Ag2g-3       1Ag2g-2       1Ag2g-1       1Ag2g0        1Ag2g+1       1Ag2g+2       1Ag2g+3       1Ag2g+4   
   16    1Ag3g-4       1Ag3g-3       1Ag3g-2       1Ag3g-1       1Ag3g0        1Ag3g+1       1Ag3g+2       1Ag3g+3       1Ag3g+4       1Ag4g-4   
   17    1Ag4g-3       1Ag4g-2       1Ag4g-1       1Ag4g0        1Ag4g+1       1Ag4g+2       1Ag4g+3       1Ag4g+4       1Ag5g-4       1Ag5g-3   
   18    1Ag5g-2       1Ag5g-1       1Ag5g0        1Ag5g+1       1Ag5g+2       1Ag5g+3       1Ag5g+4       1Ag6g-4       1Ag6g-3       1Ag6g-2   
   19    1Ag6g-1       1Ag6g0        1Ag6g+1       1Ag6g+2       1Ag6g+3       1Ag6g+4       1Ag1h-5       1Ag1h-4       1Ag1h-3       1Ag1h-2   
   20    1Ag1h-1       1Ag1h0        1Ag1h+1       1Ag1h+2       1Ag1h+3       1Ag1h+4       1Ag1h+5       1Ag2h-5       1Ag2h-4       1Ag2h-3   
   21    1Ag2h-2       1Ag2h-1       1Ag2h0        1Ag2h+1       1Ag2h+2       1Ag2h+3       1Ag2h+4       1Ag2h+5       1Ag3h-5       1Ag3h-4   
   22    1Ag3h-3       1Ag3h-2       1Ag3h-1       1Ag3h0        1Ag3h+1       1Ag3h+2       1Ag3h+3       1Ag3h+4       1Ag3h+5       1Ag1i-6   
   23    1Ag1i-5       1Ag1i-4       1Ag1i-3       1Ag1i-2       1Ag1i-1       1Ag1i0        1Ag1i+1       1Ag1i+2       1Ag1i+3       1Ag1i+4   
   24    1Ag1i+5       1Ag1i+6       1Ag2i-6       1Ag2i-5       1Ag2i-4       1Ag2i-3       1Ag2i-2       1Ag2i-1       1Ag2i0        1Ag2i+1   
   25    1Ag2i+2       1Ag2i+3       1Ag2i+4       1Ag2i+5       1Ag2i+6       2Ag1s         2Ag2s         2Ag3s         2Ag4s         2Ag5s     
   26    2Ag6s         2Ag7s         2Ag8s         2Ag9s         2Ag10s        2Ag11s        2Ag1pz        2Ag1py        2Ag1px        2Ag2pz    
   27    2Ag2py        2Ag2px        2Ag3pz        2Ag3py        2Ag3px        2Ag4pz        2Ag4py        2Ag4px        2Ag5pz        2Ag5py    
   28    2Ag5px        2Ag6pz        2Ag6py        2Ag6px        2Ag7pz        2Ag7py        2Ag7px        2Ag8pz        2Ag8py        2Ag8px    
   29    2Ag9pz        2Ag9py        2Ag9px        2Ag10pz       2Ag10py       2Ag10px       2Ag1d-2       2Ag1d-1       2Ag1d0        2Ag1d+1   
   30    2Ag1d+2       2Ag2d-2       2Ag2d-1       2Ag2d0        2Ag2d+1       2Ag2d+2       2Ag3d-2       2Ag3d-1       2Ag3d0        2Ag3d+1   
   31    2Ag3d+2       2Ag4d-2       2Ag4d-1       2Ag4d0        2Ag4d+1       2Ag4d+2       2Ag5d-2       2Ag5d-1       2Ag5d0        2Ag5d+1   
   32    2Ag5d+2       2Ag6d-2       2Ag6d-1       2Ag6d0        2Ag6d+1       2Ag6d+2       2Ag7d-2       2Ag7d-1       2Ag7d0        2Ag7d+1   
   33    2Ag7d+2       2Ag8d-2       2Ag8d-1       2Ag8d0        2Ag8d+1       2Ag8d+2       2Ag9d-2       2Ag9d-1       2Ag9d0        2Ag9d+1   
   34    2Ag9d+2       2Ag1f-3       2Ag1f-2       2Ag1f-1       2Ag1f0        2Ag1f+1       2Ag1f+2       2Ag1f+3       2Ag2f-3       2Ag2f-2   
   35    2Ag2f-1       2Ag2f0        2Ag2f+1       2Ag2f+2       2Ag2f+3       2Ag3f-3       2Ag3f-2       2Ag3f-1       2Ag3f0        2Ag3f+1   
   36    2Ag3f+2       2Ag3f+3       2Ag4f-3       2Ag4f-2       2Ag4f-1       2Ag4f0        2Ag4f+1       2Ag4f+2       2Ag4f+3       2Ag5f-3   
   37    2Ag5f-2       2Ag5f-1       2Ag5f0        2Ag5f+1       2Ag5f+2       2Ag5f+3       2Ag6f-3       2Ag6f-2       2Ag6f-1       2Ag6f0    
   38    2Ag6f+1       2Ag6f+2       2Ag6f+3       2Ag7f-3       2Ag7f-2       2Ag7f-1       2Ag7f0        2Ag7f+1       2Ag7f+2       2Ag7f+3   
   39    2Ag8f-3       2Ag8f-2       2Ag8f-1       2Ag8f0        2Ag8f+1       2Ag8f+2       2Ag8f+3       2Ag1g-4       2Ag1g-3       2Ag1g-2   
   40    2Ag1g-1       2Ag1g0        2Ag1g+1       2Ag1g+2       2Ag1g+3       2Ag1g+4       2Ag2g-4       2Ag2g-3       2Ag2g-2       2Ag2g-1   
   41    2Ag2g0        2Ag2g+1       2Ag2g+2       2Ag2g+3       2Ag2g+4       2Ag3g-4       2Ag3g-3       2Ag3g-2       2Ag3g-1       2Ag3g0    
   42    2Ag3g+1       2Ag3g+2       2Ag3g+3       2Ag3g+4       2Ag4g-4       2Ag4g-3       2Ag4g-2       2Ag4g-1       2Ag4g0        2Ag4g+1   
   43    2Ag4g+2       2Ag4g+3       2Ag4g+4       2Ag5g-4       2Ag5g-3       2Ag5g-2       2Ag5g-1       2Ag5g0        2Ag5g+1       2Ag5g+2   
   44    2Ag5g+3       2Ag5g+4       2Ag6g-4       2Ag6g-3       2Ag6g-2       2Ag6g-1       2Ag6g0        2Ag6g+1       2Ag6g+2       2Ag6g+3   
   45    2Ag6g+4       2Ag1h-5       2Ag1h-4       2Ag1h-3       2Ag1h-2       2Ag1h-1       2Ag1h0        2Ag1h+1       2Ag1h+2       2Ag1h+3   
   46    2Ag1h+4       2Ag1h+5       2Ag2h-5       2Ag2h-4       2Ag2h-3       2Ag2h-2       2Ag2h-1       2Ag2h0        2Ag2h+1       2Ag2h+2   
   47    2Ag2h+3       2Ag2h+4       2Ag2h+5       2Ag3h-5       2Ag3h-4       2Ag3h-3       2Ag3h-2       2Ag3h-1       2Ag3h0        2Ag3h+1   
   48    2Ag3h+2       2Ag3h+3       2Ag3h+4       2Ag3h+5       2Ag1i-6       2Ag1i-5       2Ag1i-4       2Ag1i-3       2Ag1i-2       2Ag1i-1   
   49    2Ag1i0        2Ag1i+1       2Ag1i+2       2Ag1i+3       2Ag1i+4       2Ag1i+5       2Ag1i+6       2Ag2i-6       2Ag2i-5       2Ag2i-4   
   50    2Ag2i-3       2Ag2i-2       2Ag2i-1       2Ag2i0        2Ag2i+1       2Ag2i+2       2Ag2i+3       2Ag2i+4       2Ag2i+5       2Ag2i+6   
   51    3Ag1s         3Ag2s         3Ag3s         3Ag4s         3Ag5s         3Ag6s         3Ag7s         3Ag8s         3Ag9s         3Ag10s    
   52    3Ag11s        3Ag1pz        3Ag1py        3Ag1px        3Ag2pz        3Ag2py        3Ag2px        3Ag3pz        3Ag3py        3Ag3px    
   53    3Ag4pz        3Ag4py        3Ag4px        3Ag5pz        3Ag5py        3Ag5px        3Ag6pz        3Ag6py        3Ag6px        3Ag7pz    
   54    3Ag7py        3Ag7px        3Ag8pz        3Ag8py        3Ag8px        3Ag9pz        3Ag9py        3Ag9px        3Ag10pz       3Ag10py   
   55    3Ag10px       3Ag1d-2       3Ag1d-1       3Ag1d0        3Ag1d+1       3Ag1d+2       3Ag2d-2       3Ag2d-1       3Ag2d0        3Ag2d+1   
   56    3Ag2d+2       3Ag3d-2       3Ag3d-1       3Ag3d0        3Ag3d+1       3Ag3d+2       3Ag4d-2       3Ag4d-1       3Ag4d0        3Ag4d+1   
   57    3Ag4d+2       3Ag5d-2       3Ag5d-1       3Ag5d0        3Ag5d+1       3Ag5d+2       3Ag6d-2       3Ag6d-1       3Ag6d0        3Ag6d+1   
   58    3Ag6d+2       3Ag7d-2       3Ag7d-1       3Ag7d0        3Ag7d+1       3Ag7d+2       3Ag8d-2       3Ag8d-1       3Ag8d0        3Ag8d+1   
   59    3Ag8d+2       3Ag9d-2       3Ag9d-1       3Ag9d0        3Ag9d+1       3Ag9d+2       3Ag1f-3       3Ag1f-2       3Ag1f-1       3Ag1f0    
   60    3Ag1f+1       3Ag1f+2       3Ag1f+3       3Ag2f-3       3Ag2f-2       3Ag2f-1       3Ag2f0        3Ag2f+1       3Ag2f+2       3Ag2f+3   
   61    3Ag3f-3       3Ag3f-2       3Ag3f-1       3Ag3f0        3Ag3f+1       3Ag3f+2       3Ag3f+3       3Ag4f-3       3Ag4f-2       3Ag4f-1   
   62    3Ag4f0        3Ag4f+1       3Ag4f+2       3Ag4f+3       3Ag5f-3       3Ag5f-2       3Ag5f-1       3Ag5f0        3Ag5f+1       3Ag5f+2   
   63    3Ag5f+3       3Ag6f-3       3Ag6f-2       3Ag6f-1       3Ag6f0        3Ag6f+1       3Ag6f+2       3Ag6f+3       3Ag7f-3       3Ag7f-2   
   64    3Ag7f-1       3Ag7f0        3Ag7f+1       3Ag7f+2       3Ag7f+3       3Ag8f-3       3Ag8f-2       3Ag8f-1       3Ag8f0        3Ag8f+1   
   65    3Ag8f+2       3Ag8f+3       3Ag1g-4       3Ag1g-3       3Ag1g-2       3Ag1g-1       3Ag1g0        3Ag1g+1       3Ag1g+2       3Ag1g+3   
   66    3Ag1g+4       3Ag2g-4       3Ag2g-3       3Ag2g-2       3Ag2g-1       3Ag2g0        3Ag2g+1       3Ag2g+2       3Ag2g+3       3Ag2g+4   
   67    3Ag3g-4       3Ag3g-3       3Ag3g-2       3Ag3g-1       3Ag3g0        3Ag3g+1       3Ag3g+2       3Ag3g+3       3Ag3g+4       3Ag4g-4   
   68    3Ag4g-3       3Ag4g-2       3Ag4g-1       3Ag4g0        3Ag4g+1       3Ag4g+2       3Ag4g+3       3Ag4g+4       3Ag5g-4       3Ag5g-3   
   69    3Ag5g-2       3Ag5g-1       3Ag5g0        3Ag5g+1       3Ag5g+2       3Ag5g+3       3Ag5g+4       3Ag6g-4       3Ag6g-3       3Ag6g-2   
   70    3Ag6g-1       3Ag6g0        3Ag6g+1       3Ag6g+2       3Ag6g+3       3Ag6g+4       3Ag1h-5       3Ag1h-4       3Ag1h-3       3Ag1h-2   
   71    3Ag1h-1       3Ag1h0        3Ag1h+1       3Ag1h+2       3Ag1h+3       3Ag1h+4       3Ag1h+5       3Ag2h-5       3Ag2h-4       3Ag2h-3   
   72    3Ag2h-2       3Ag2h-1       3Ag2h0        3Ag2h+1       3Ag2h+2       3Ag2h+3       3Ag2h+4       3Ag2h+5       3Ag3h-5       3Ag3h-4   
   73    3Ag3h-3       3Ag3h-2       3Ag3h-1       3Ag3h0        3Ag3h+1       3Ag3h+2       3Ag3h+3       3Ag3h+4       3Ag3h+5       3Ag1i-6   
   74    3Ag1i-5       3Ag1i-4       3Ag1i-3       3Ag1i-2       3Ag1i-1       3Ag1i0        3Ag1i+1       3Ag1i+2       3Ag1i+3       3Ag1i+4   
   75    3Ag1i+5       3Ag1i+6       3Ag2i-6       3Ag2i-5       3Ag2i-4       3Ag2i-3       3Ag2i-2       3Ag2i-1       3Ag2i0        3Ag2i+1   
   76    3Ag2i+2       3Ag2i+3       3Ag2i+4       3Ag2i+5       3Ag2i+6       4Ag1s         4Ag2s         4Ag3s         4Ag4s         4Ag5s     
   77    4Ag6s         4Ag7s         4Ag8s         4Ag9s         4Ag10s        4Ag11s        4Ag1pz        4Ag1py        4Ag1px        4Ag2pz    
   78    4Ag2py        4Ag2px        4Ag3pz        4Ag3py        4Ag3px        4Ag4pz        4Ag4py        4Ag4px        4Ag5pz        4Ag5py    
   79    4Ag5px        4Ag6pz        4Ag6py        4Ag6px        4Ag7pz        4Ag7py        4Ag7px        4Ag8pz        4Ag8py        4Ag8px    
   80    4Ag9pz        4Ag9py        4Ag9px        4Ag10pz       4Ag10py       4Ag10px       4Ag1d-2       4Ag1d-1       4Ag1d0        4Ag1d+1   
   81    4Ag1d+2       4Ag2d-2       4Ag2d-1       4Ag2d0        4Ag2d+1       4Ag2d+2       4Ag3d-2       4Ag3d-1       4Ag3d0        4Ag3d+1   
   82    4Ag3d+2       4Ag4d-2       4Ag4d-1       4Ag4d0        4Ag4d+1       4Ag4d+2       4Ag5d-2       4Ag5d-1       4Ag5d0        4Ag5d+1   
   83    4Ag5d+2       4Ag6d-2       4Ag6d-1       4Ag6d0        4Ag6d+1       4Ag6d+2       4Ag7d-2       4Ag7d-1       4Ag7d0        4Ag7d+1   
   84    4Ag7d+2       4Ag8d-2       4Ag8d-1       4Ag8d0        4Ag8d+1       4Ag8d+2       4Ag9d-2       4Ag9d-1       4Ag9d0        4Ag9d+1   
   85    4Ag9d+2       4Ag1f-3       4Ag1f-2       4Ag1f-1       4Ag1f0        4Ag1f+1       4Ag1f+2       4Ag1f+3       4Ag2f-3       4Ag2f-2   
   86    4Ag2f-1       4Ag2f0        4Ag2f+1       4Ag2f+2       4Ag2f+3       4Ag3f-3       4Ag3f-2       4Ag3f-1       4Ag3f0        4Ag3f+1   
   87    4Ag3f+2       4Ag3f+3       4Ag4f-3       4Ag4f-2       4Ag4f-1       4Ag4f0        4Ag4f+1       4Ag4f+2       4Ag4f+3       4Ag5f-3   
   88    4Ag5f-2       4Ag5f-1       4Ag5f0        4Ag5f+1       4Ag5f+2       4Ag5f+3       4Ag6f-3       4Ag6f-2       4Ag6f-1       4Ag6f0    
   89    4Ag6f+1       4Ag6f+2       4Ag6f+3       4Ag7f-3       4Ag7f-2       4Ag7f-1       4Ag7f0        4Ag7f+1       4Ag7f+2       4Ag7f+3   
   90    4Ag8f-3       4Ag8f-2       4Ag8f-1       4Ag8f0        4Ag8f+1       4Ag8f+2       4Ag8f+3       4Ag1g-4       4Ag1g-3       4Ag1g-2   
   91    4Ag1g-1       4Ag1g0        4Ag1g+1       4Ag1g+2       4Ag1g+3       4Ag1g+4       4Ag2g-4       4Ag2g-3       4Ag2g-2       4Ag2g-1   
   92    4Ag2g0        4Ag2g+1       4Ag2g+2       4Ag2g+3       4Ag2g+4       4Ag3g-4       4Ag3g-3       4Ag3g-2       4Ag3g-1       4Ag3g0    
   93    4Ag3g+1       4Ag3g+2       4Ag3g+3       4Ag3g+4       4Ag4g-4       4Ag4g-3       4Ag4g-2       4Ag4g-1       4Ag4g0        4Ag4g+1   
   94    4Ag4g+2       4Ag4g+3       4Ag4g+4       4Ag5g-4       4Ag5g-3       4Ag5g-2       4Ag5g-1       4Ag5g0        4Ag5g+1       4Ag5g+2   
   95    4Ag5g+3       4Ag5g+4       4Ag6g-4       4Ag6g-3       4Ag6g-2       4Ag6g-1       4Ag6g0        4Ag6g+1       4Ag6g+2       4Ag6g+3   
   96    4Ag6g+4       4Ag1h-5       4Ag1h-4       4Ag1h-3       4Ag1h-2       4Ag1h-1       4Ag1h0        4Ag1h+1       4Ag1h+2       4Ag1h+3   
   97    4Ag1h+4       4Ag1h+5       4Ag2h-5       4Ag2h-4       4Ag2h-3       4Ag2h-2       4Ag2h-1       4Ag2h0        4Ag2h+1       4Ag2h+2   
   98    4Ag2h+3       4Ag2h+4       4Ag2h+5       4Ag3h-5       4Ag3h-4       4Ag3h-3       4Ag3h-2       4Ag3h-1       4Ag3h0        4Ag3h+1   
   99    4Ag3h+2       4Ag3h+3       4Ag3h+4       4Ag3h+5       4Ag1i-6       4Ag1i-5       4Ag1i-4       4Ag1i-3       4Ag1i-2       4Ag1i-1   
  100    4Ag1i0        4Ag1i+1       4Ag1i+2       4Ag1i+3       4Ag1i+4       4Ag1i+5       4Ag1i+6       4Ag2i-6       4Ag2i-5       4Ag2i-4   
  101    4Ag2i-3       4Ag2i-2       4Ag2i-1       4Ag2i0        4Ag2i+1       4Ag2i+2       4Ag2i+3       4Ag2i+4       4Ag2i+5       4Ag2i+6   
 
 Maximum number of basis functions per shell:   56
 Total number of basis functions:   1020
 
 
 Effective core potentials:
 
   1  Ag mcdhf-ecp-28        
   2  Ag mcdhf-ecp-28        
   3  Ag mcdhf-ecp-28        
   4  Ag mcdhf-ecp-28        
 
 Initializing the SAD routines for the initial guess...
 Checking the files required for the initial guess...
 Density files have not been found for the initial guess.
 Generating SCFDENSITIES.Ag.def2-svp.0
 CPU time [min]:     0.115                   Wall time [min]:     0.224
 
 Character table for point group C1:
 
          E  
    A     1
 
 Number of basis functions per irrep:
    A     124
 
 
 Density functional: PBE hybrid functional (PBE0)
 Constructing integration grid for DFT...
 Angular integration grid: adaptive 590-point Lebedev quadrature
 Radial integration grid: Log3 quadrature
 Total number of grid points: 93808       
 CPU time [min]:     1.046                   Wall time [min]:     0.251
 
 Calculation of overlap integrals...
 CPU time [min]:     1.049                   Wall time [min]:     0.252
 
 Calculation of the square root of the overlap matrix...
 Minimum eigenvalue of the overlap matrix: 0.555185E-03
 CPU time [min]:     1.133                   Wall time [min]:     0.255
 
 Calculation of kinetic energy integrals...
 CPU time [min]:     1.134                   Wall time [min]:     0.255
 Calculation of dipole moment integrals...
 CPU time [min]:     1.135                   Wall time [min]:     0.255
 Calculation of nuclear attraction integrals...
 CPU time [min]:     1.137                   Wall time [min]:     0.255
 Calculation of core potential integrals...
 CPU time [min]:     1.271                   Wall time [min]:     0.283
 
 Calculation of prescreening integrals...
 CPU time [min]:     1.418                   Wall time [min]:     0.287
 
 Calculation of two-center Coulomb integrals...
   1% done.
  15% done.
  26% done.
  41% done.
  53% done.
  70% done.
  89% done.
 100% done.
 CPU time [min]:     1.591                   Wall time [min]:     0.292
 
 Cholesky decomposition of the two-center matrix...
 Reciprocal of the condition number:  0.754992E-05
 CPU time [min]:     1.744                   Wall time [min]:     0.297
 
 
 Running small-basis SCF...

 ************************ 2023-10-21 21:35:16 *************************
 Executing scf...

 @scfsetup: integrals calculated directly
            mrcc/integ direct run
 @scfsetup: calculating on full matrices
            not using symmetry adapted basis
 @scfsetup: diis switched on
 @scfsetup: number of steps to extrapolate from  10
 @scfsetup: tolerance in energy deviation    0.100000E-05
            tolerance in density deviation    0.100000E-05
 @scfsetup: maximum number of iterations:  50
 @scfsetup: restricted closed shell hf calc
 @scfsetup: starting scf from superposition of atomic densities
 @scfsetup: occupation set:
            from initial orbitals
 @scfsetup: Parameter-set for SCF acceleration: difficult
 @scfsetup: diis runs from iteration:   2
 @scfsetup: diis runs to iteration:  50
 @scfsetup: diis runs in every iteration
 @scfsetup: diiswatch is disabled                   
 @scfsetup: diis dtol criteria to switch on:      0.0000E+00
           (or the iteration number below is reached)
 @scfsetup: static damping scheme
            iteration step criteria to turn damping off: 3
 @scfsetup: dynamic level shifting
            tolarance in HOMO-LUMO gap:  0.200
            tolarance in density deviation:     0.0000E+00
            iteration step criteria to turn level shifting off: 8
 Allocation of 220.0 Gbytes of memory...
 ======================================================================
 ITERATION STEP   1
 CPU time [min]:     0.025                   Wall time [min]:     0.005
 

 SCF control                  : initial
 Damping factor/level shift   : 0.700/0.200
 DIIS [start/end/frequency]   :   2 / 50 /  1

 Constructing Fock-matrix...
 
 Pipek-Mezey localization...
 Step  Convergence
   1   7.855496873973
   2   2.977048257064
   3   0.342764191238
   4   0.002869154994
   5   0.000000318041
 CPU time [min]:     0.047                   Wall time [min]:     0.005
 
 Constructing local fitting domains...
 Maximum number of atoms in fitting domains:    4
 Average number of atoms in fitting domains:    3.5
 
 First step of Coulomb + first step of exchange...
 Exchange contribution is evaluated for MOs 1 to 38.
   1% done.
  13% done.
  25% done.
  38% done.
  56% done.
  75% done.
  89% done.
 100% done.
 Fitting and assembly step of exchange...
 CPU time [min]:     1.306                   Wall time [min]:     0.045
 
 Second step of Coulomb...
   1% done.
  13% done.
  25% done.
  38% done.
  56% done.
  75% done.
  89% done.
 100% done.
 CPU time [min]:     1.348                   Wall time [min]:     0.046
 
 Calculating the exchange-correlation matrix...
                  0.7500*PBEX [au]:    -41.881258947347
                  1.0000*PBEC [au]:     -3.366496361778
 Exchange-correlation energy  [au]:    -45.247755309124
 CPU time [min]:     1.668                   Wall time [min]:     0.064
 
 Coulomb energy + HF exchange [au]:    837.744143618205
 Gradient norm:      8.1789E-01
 RMS of [F,P]:                                         0.02562912585751
 RMS of difference density:                            0.01641424841438
 Gap [au]:  0.00000000
 ALPHA OCC:  38
 BETA  OCC:  38
 
 ***KOHN-SHAM ENERGY IN STEP   1 IS          -586.1683896229887978 [AU]
 ======================================================================
 ITERATION STEP   2
 CPU time [min]:     1.680                   Wall time [min]:     0.065
 

 SCF control                  : diis+damping
 Damping factor/level shift   : 0.700/0.200
 DIIS [start/end/frequency]   :   2 / 50 /  1

 Constructing Fock-matrix...
 
 Pipek-Mezey localization...
 Step  Convergence
   1  17.044203693041
   2   7.070307390921
   3   0.759349689387
   4   0.008359903720
   5   0.000003219285
   6   0.000000004221
 CPU time [min]:     1.703                   Wall time [min]:     0.065
 
 Constructing local fitting domains...
 Maximum number of atoms in fitting domains:    4
 Average number of atoms in fitting domains:    3.5
 
 First step of Coulomb + first step of exchange...
 Exchange contribution is evaluated for MOs 1 to 38.
   1% done.
  13% done.
  25% done.
  38% done.
  56% done.
  75% done.
  89% done.
 100% done.
 Fitting and assembly step of exchange...
 CPU time [min]:     2.169                   Wall time [min]:     0.078
 
 Second step of Coulomb...
   1% done.
  13% done.
  25% done.
  38% done.
  56% done.
  75% done.
  89% done.
 100% done.
 CPU time [min]:     2.204                   Wall time [min]:     0.079
 
 Calculating the exchange-correlation matrix...
                  0.7500*PBEX [au]:    -40.742545320170
                  1.0000*PBEC [au]:     -3.318712215493
 Exchange-correlation energy  [au]:    -44.061257535663
 CPU time [min]:     2.522                   Wall time [min]:     0.097
 
 Coulomb energy + HF exchange [au]:    823.841588754427
 Gradient norm:      2.4536E-01
 DIIS is running in this iteration step.
 RMS of [F,P]:                                         0.01631270626487
 RMS of difference density:                            0.00497417414336
 Gap [au]:  0.07205941
 ALPHA OCC:  38
 BETA  OCC:  38
 
 ***KOHN-SHAM ENERGY IN STEP   2 IS          -587.1180828672954704 [AU]
 
 Step comparison  Energy Drift [au]  DIIS error drift  Gradient drift
        1            9.4969E-01         9.3164E-03       5.7253E-01
        2            5.8712E+02         1.0000E-06       5.7253E-01
 ======================================================================
 ITERATION STEP   3
 CPU time [min]:     2.533                   Wall time [min]:     0.098
 

 SCF control                  : diis+damping
 Damping factor/level shift   : 0.700/0.200
 DIIS [start/end/frequency]   :   2 / 50 /  1

 Constructing Fock-matrix...
 
 Pipek-Mezey localization...
 Step  Convergence
   1  15.792259622443
   2   3.350918621339
   3   0.129155431411
   4   0.000372545969
   5   0.000000021085
 CPU time [min]:     2.554                   Wall time [min]:     0.098
 
 Constructing local fitting domains...
 Local fitting domains are unchanged.
 
 First step of Coulomb + first step of exchange...
 Exchange contribution is evaluated for MOs 1 to 38.
   1% done.
  13% done.
  25% done.
  38% done.
  56% done.
  75% done.
  89% done.
 100% done.
 Fitting and assembly step of exchange...
 CPU time [min]:     3.020                   Wall time [min]:     0.111
 
 Second step of Coulomb...
   1% done.
  13% done.
  25% done.
  38% done.
  56% done.
  75% done.
  89% done.
 100% done.
 CPU time [min]:     3.056                   Wall time [min]:     0.112
 
 Calculating the exchange-correlation matrix...
                  0.7500*PBEX [au]:    -40.364909157292
                  1.0000*PBEC [au]:     -3.304439895902
 Exchange-correlation energy  [au]:    -43.669349053194
 CPU time [min]:     3.371                   Wall time [min]:     0.130
 
 Coulomb energy + HF exchange [au]:    819.418031425674
 Gradient norm:      7.1947E-02
 DIIS is running in this iteration step.
 RMS of [F,P]:                                         0.01150602758558
 RMS of difference density:                            0.00411521220048
 Gap [au]:  0.07689470
 ALPHA OCC:  38
 BETA  OCC:  38
 
 ***KOHN-SHAM ENERGY IN STEP   3 IS          -587.3221020059909279 [AU]
 
 Step comparison  Energy Drift [au]  DIIS error drift  Gradient drift
        2            2.0402E-01         4.8067E-03       1.7341E-01
 ======================================================================
 ITERATION STEP   4
 CPU time [min]:     3.424                   Wall time [min]:     0.132
 

 SCF control                  : diis
 Damping factor/level shift   : 0.000/0.200
 DIIS [start/end/frequency]   :   2 / 50 /  1

 Constructing Fock-matrix...
 
 Pipek-Mezey localization...
 Step  Convergence
   1  13.636037169353
   2   3.025701575202
   3   0.084492236842
   4   0.000046441060
   5   0.000000059982
 CPU time [min]:     3.448                   Wall time [min]:     0.133
 
 Constructing local fitting domains...
 Local fitting domains are unchanged.
 
 First step of Coulomb + first step of exchange...
 Exchange contribution is evaluated for MOs 1 to 38.
   1% done.
  13% done.
  25% done.
  38% done.
  56% done.
  75% done.
  89% done.
 100% done.
 Fitting and assembly step of exchange...
 CPU time [min]:     3.914                   Wall time [min]:     0.145
 
 Second step of Coulomb...
   1% done.
  13% done.
  25% done.
  38% done.
  56% done.
  75% done.
  89% done.
 100% done.
 CPU time [min]:     3.949                   Wall time [min]:     0.146
 
 Calculating the exchange-correlation matrix...
                  0.7500*PBEX [au]:    -40.298038203197
                  1.0000*PBEC [au]:     -3.303871955659
 Exchange-correlation energy  [au]:    -43.601910158856
 CPU time [min]:     4.265                   Wall time [min]:     0.165
 
 Coulomb energy + HF exchange [au]:    819.648479302482
 Gradient norm:      1.5894E-01
 DIIS is running in this iteration step.
 RMS of [F,P]:                                         0.00881001467119
 RMS of difference density:                            0.01260536410637
 Gap [au]:  0.07977505
 ALPHA OCC:  38
 BETA  OCC:  38
 
 ***KOHN-SHAM ENERGY IN STEP   4 IS          -587.3150836982797500 [AU]
 
 Step comparison  Energy Drift [au]  DIIS error drift  Gradient drift
        3           -7.0183E-03         2.6960E-03      -8.6993E-02
 Warning! The energy goes uphill (with respect to previous step).
 Warning! The gradient goes uphill (with respect to previous step).
 Warning! The gradient goes uphill (with respect to step   3 ).
 ======================================================================
 ITERATION STEP   5
 CPU time [min]:     4.273                   Wall time [min]:     0.165
 

 SCF control                  : diis
 Damping factor/level shift   : 0.000/0.200
 DIIS [start/end/frequency]   :   2 / 50 /  1

 Constructing Fock-matrix...
 
 Pipek-Mezey localization...
 Step  Convergence
   1  18.780164377234
   2   3.688845573599
   3   0.475112493246
   4   0.006651119822
   5   0.000002128620
   6   0.000000021442
 CPU time [min]:     4.300                   Wall time [min]:     0.166
 
 Constructing local fitting domains...
 Local fitting domains are unchanged.
 
 First step of Coulomb + first step of exchange...
 Exchange contribution is evaluated for MOs 1 to 38.
   1% done.
  13% done.
  25% done.
  38% done.
  56% done.
  75% done.
  89% done.
 100% done.
 Fitting and assembly step of exchange...
 CPU time [min]:     4.781                   Wall time [min]:     0.179
 
 Second step of Coulomb...
   1% done.
  13% done.
  25% done.
  38% done.
  56% done.
  75% done.
  89% done.
 100% done.
 CPU time [min]:     4.816                   Wall time [min]:     0.180
 
 Calculating the exchange-correlation matrix...
                  0.7500*PBEX [au]:    -39.957641690687
                  1.0000*PBEC [au]:     -3.295277437568
 Exchange-correlation energy  [au]:    -43.252919128255
 CPU time [min]:     5.132                   Wall time [min]:     0.198
 
 Coulomb energy + HF exchange [au]:    815.931520784935
 Gradient norm:      3.2703E-02
 DIIS is running in this iteration step.
 RMS of [F,P]:                                         0.00061291434860
 RMS of difference density:                            0.00359264101830
 Gap [au]:  0.07889642
 ALPHA OCC:  38
 BETA  OCC:  38
 
 ***KOHN-SHAM ENERGY IN STEP   5 IS          -587.5064751623710890 [AU]
 
 Step comparison  Energy Drift [au]  DIIS error drift  Gradient drift
        4            1.9139E-01         8.1971E-03       1.2624E-01
 ======================================================================
 ITERATION STEP   6
 CPU time [min]:     5.140                   Wall time [min]:     0.198
 

 SCF control                  : diis
 Damping factor/level shift   : 0.000/0.200
 DIIS [start/end/frequency]   :   2 / 50 /  1

 Constructing Fock-matrix...
 
 Pipek-Mezey localization...
 Step  Convergence
   1  22.299454730835
   2   1.826360788632
   3   0.071502262728
   4   0.000084066280
   5   0.000000239729
 CPU time [min]:     5.161                   Wall time [min]:     0.199
 
 Constructing local fitting domains...
 Local fitting domains are unchanged.
 
 First step of Coulomb + first step of exchange...
 Exchange contribution is evaluated for MOs 1 to 38.
   1% done.
  13% done.
  25% done.
  38% done.
  56% done.
  75% done.
  89% done.
 100% done.
 Fitting and assembly step of exchange...
 CPU time [min]:     5.626                   Wall time [min]:     0.212
 
 Second step of Coulomb...
   1% done.
  13% done.
  25% done.
  38% done.
  56% done.
  75% done.
  89% done.
 100% done.
 CPU time [min]:     5.661                   Wall time [min]:     0.213
 
 Calculating the exchange-correlation matrix...
                  0.7500*PBEX [au]:    -39.949463100058
                  1.0000*PBEC [au]:     -3.295874921584
 Exchange-correlation energy  [au]:    -43.245338021642
 CPU time [min]:     5.979                   Wall time [min]:     0.231
 
 Coulomb energy + HF exchange [au]:    815.943502774135
 Gradient norm:      9.8247E-03
 DIIS is running in this iteration step.
 RMS of [F,P]:                                         0.00022551730947
 RMS of difference density:                            0.00151820725995
 Gap [au]:  0.08000822
 ALPHA OCC:  38
 BETA  OCC:  38
 
 ***KOHN-SHAM ENERGY IN STEP   6 IS          -587.5078879497575599 [AU]
 
 Step comparison  Energy Drift [au]  DIIS error drift  Gradient drift
        5            1.4128E-03         3.8740E-04       2.2878E-02
 ======================================================================
 ITERATION STEP   7
 CPU time [min]:     5.988                   Wall time [min]:     0.231
 

 SCF control                  : diis
 Damping factor/level shift   : 0.000/0.200
 DIIS [start/end/frequency]   :   2 / 50 /  1

 Constructing Fock-matrix...
 
 Pipek-Mezey localization...
 Step  Convergence
   1  20.016977989194
   2   5.656316478155
   3   2.548463568422
   4   0.306283374214
   5   0.006634734675
   6   0.000741873533
   7   0.000105072324
   8   0.000015326840
   9   0.000002239767
  10   0.000000327988
  11   0.000000047989
 CPU time [min]:     6.012                   Wall time [min]:     0.232
 
 Constructing local fitting domains...
 Local fitting domains are unchanged.
 
 First step of Coulomb + first step of exchange...
 Exchange contribution is evaluated for MOs 1 to 38.
   1% done.
  13% done.
  25% done.
  38% done.
  56% done.
  75% done.
  89% done.
 100% done.
 Fitting and assembly step of exchange...
 CPU time [min]:     6.478                   Wall time [min]:     0.245
 
 Second step of Coulomb...
   1% done.
  13% done.
  25% done.
  38% done.
  56% done.
  75% done.
  89% done.
 100% done.
 CPU time [min]:     6.513                   Wall time [min]:     0.246
 
 Calculating the exchange-correlation matrix...
                  0.7500*PBEX [au]:    -39.945283235298
                  1.0000*PBEC [au]:     -3.296133412766
 Exchange-correlation energy  [au]:    -43.241416648064
 CPU time [min]:     6.832                   Wall time [min]:     0.264
 
 Coulomb energy + HF exchange [au]:    815.915649852950
 Gradient norm:      7.5462E-03
 DIIS is running in this iteration step.
 RMS of [F,P]:                                         0.00015751690089
 RMS of difference density:                            0.00074821942767
 Gap [au]:  0.07981743
 ALPHA OCC:  38
 BETA  OCC:  38
 
 ***KOHN-SHAM ENERGY IN STEP   7 IS          -587.5081550932720802 [AU]
 
 Step comparison  Energy Drift [au]  DIIS error drift  Gradient drift
        6            2.6714E-04         6.8000E-05       2.2784E-03
 ======================================================================
 ITERATION STEP   8
 CPU time [min]:     6.840                   Wall time [min]:     0.264
 

 SCF control                  : diis
 Damping factor/level shift   : 0.000/0.200
 DIIS [start/end/frequency]   :   2 / 50 /  1

 Constructing Fock-matrix...
 
 Pipek-Mezey localization...
 Step  Convergence
   1  22.612915443730
   2   6.503401371997
   3   4.944051273731
   4   2.265375121254
   5   0.087363410829
   6   0.000963781188
   7   0.000038862510
   8   0.000001795094
   9   0.000000105776
  10   0.000000006001
 CPU time [min]:     6.863                   Wall time [min]:     0.265
 
 Constructing local fitting domains...
 Local fitting domains are unchanged.
 
 First step of Coulomb + first step of exchange...
 Exchange contribution is evaluated for MOs 1 to 38.
   1% done.
  13% done.
  25% done.
  38% done.
  56% done.
  75% done.
  89% done.
 100% done.
 Fitting and assembly step of exchange...
 CPU time [min]:     7.327                   Wall time [min]:     0.277
 
 Second step of Coulomb...
   1% done.
  13% done.
  25% done.
  38% done.
  56% done.
  75% done.
  89% done.
 100% done.
 CPU time [min]:     7.363                   Wall time [min]:     0.278
 
 Calculating the exchange-correlation matrix...
                  0.7500*PBEX [au]:    -39.943933644031
                  1.0000*PBEC [au]:     -3.296291659221
 Exchange-correlation energy  [au]:    -43.240225303252
 CPU time [min]:     7.678                   Wall time [min]:     0.296
 
 Coulomb energy + HF exchange [au]:    815.938415618682
 Gradient norm:      4.2229E-03
 DIIS is running in this iteration step.
 RMS of [F,P]:                                         0.00006403483643
 RMS of difference density:                            0.00036312960370
 Gap [au]:  0.07992597
 ALPHA OCC:  38
 BETA  OCC:  38
 
 ***KOHN-SHAM ENERGY IN STEP   8 IS          -587.5082543309129051 [AU]
 
 Step comparison  Energy Drift [au]  DIIS error drift  Gradient drift
        7            9.9238E-05         9.3482E-05       3.3233E-03
 ======================================================================
 ITERATION STEP   9
 CPU time [min]:     7.687                   Wall time [min]:     0.297
 

 SCF control                  : diis
 Damping factor/level shift   : 0.000/0.000
 DIIS [start/end/frequency]   :   2 / 50 /  1

 Constructing Fock-matrix...
 
 Pipek-Mezey localization...
 Step  Convergence
   1  15.127045419832
   2   6.520899640397
   3   8.654756489624
   4   3.854357955964
   5   0.371781511219
   6   0.003987499545
   7   0.000014313210
   8   0.000000191936
   9   0.000000004696
  10   0.000000000082
  11   0.000000000003
  12   0.000000000000
 CPU time [min]:     7.711                   Wall time [min]:     0.297
 
 Constructing local fitting domains...
 Local fitting domains are unchanged.
 
 First step of Coulomb + first step of exchange...
 Exchange contribution is evaluated for MOs 1 to 38.
   1% done.
  13% done.
  25% done.
  38% done.
  56% done.
  75% done.
  89% done.
 100% done.
 Fitting and assembly step of exchange...
 CPU time [min]:     8.175                   Wall time [min]:     0.310
 
 Second step of Coulomb...
   1% done.
  13% done.
  25% done.
  38% done.
  56% done.
  75% done.
  89% done.
 100% done.
 CPU time [min]:     8.211                   Wall time [min]:     0.311
 
 Calculating the exchange-correlation matrix...
                  0.7500*PBEX [au]:    -39.942445728131
                  1.0000*PBEC [au]:     -3.296398592915
 Exchange-correlation energy  [au]:    -43.238844321046
 CPU time [min]:     8.530                   Wall time [min]:     0.329
 
 Coulomb energy + HF exchange [au]:    815.943598865373
 Gradient norm:      2.5847E-03
 DIIS is running in this iteration step.
 RMS of [F,P]:                                         0.00003293283597
 RMS of difference density:                            0.00037640015829
 Gap [au]:  0.08004373
 ALPHA OCC:  38
 BETA  OCC:  38
 
 ***KOHN-SHAM ENERGY IN STEP   9 IS          -587.5082861553059956 [AU]
 
 Step comparison  Energy Drift [au]  DIIS error drift  Gradient drift
        8            3.1824E-05         3.1102E-05       1.6382E-03
 ======================================================================
 ITERATION STEP  10
 CPU time [min]:     8.538                   Wall time [min]:     0.329
 

 SCF control                  : diis
 Damping factor/level shift   : 0.000/0.000
 DIIS [start/end/frequency]   :   2 / 50 /  1

 Constructing Fock-matrix...
 
 Pipek-Mezey localization...
 Step  Convergence
   1  19.540911982615
   2   9.370107050777
   3  11.401372788069
   4   8.492869217577
   5   4.101510429991
   6   2.177505572591
   7   1.101596537623
   8   0.413222636623
   9   0.004323762812
  10   0.000006042844
  11   0.000000014184
  12   0.000000000006
  13   0.000000000000
 CPU time [min]:     8.562                   Wall time [min]:     0.330
 
 Constructing local fitting domains...
 Local fitting domains are unchanged.
 
 First step of Coulomb + first step of exchange...
 Exchange contribution is evaluated for MOs 1 to 38.
   1% done.
  13% done.
  25% done.
  38% done.
  56% done.
  75% done.
  89% done.
 100% done.
 Fitting and assembly step of exchange...
 CPU time [min]:     9.028                   Wall time [min]:     0.343
 
 Second step of Coulomb...
   1% done.
  13% done.
  25% done.
  38% done.
  56% done.
  75% done.
  89% done.
 100% done.
 CPU time [min]:     9.063                   Wall time [min]:     0.344
 
 Calculating the exchange-correlation matrix...
                  0.7500*PBEX [au]:    -39.942127456644
                  1.0000*PBEC [au]:     -3.296593633876
 Exchange-correlation energy  [au]:    -43.238721090520
 CPU time [min]:     9.380                   Wall time [min]:     0.362
 
 Coulomb energy + HF exchange [au]:    815.976846341342
 Gradient norm:      8.2803E-04
 DIIS is running in this iteration step.
 RMS of [F,P]:                                         0.00002125417484
 RMS of difference density:                            0.00004225926376
 Gap [au]:  0.08007954
 ALPHA OCC:  38
 BETA  OCC:  38
 
 ***KOHN-SHAM ENERGY IN STEP  10 IS          -587.5082977762308474 [AU]
 
 Step comparison  Energy Drift [au]  DIIS error drift  Gradient drift
        9            1.1621E-05         1.1679E-05       1.7567E-03
 ======================================================================
 ITERATION STEP  11
 CPU time [min]:     9.388                   Wall time [min]:     0.362
 

 SCF control                  : diis
 Damping factor/level shift   : 0.000/0.000
 DIIS [start/end/frequency]   :   2 / 50 /  1

 Constructing Fock-matrix...
 
 Pipek-Mezey localization...
 Step  Convergence
   1  18.030633151683
   2   9.762752542662
   3   8.059062055563
   4   4.361898724018
   5   1.031143283892
   6   0.044943217392
   7   0.001012780889
   8   0.000011488974
   9   0.000000094990
  10   0.000000003141
  11   0.000000000032
  12   0.000000000001
  13   0.000000000000
 CPU time [min]:     9.412                   Wall time [min]:     0.363
 
 Constructing local fitting domains...
 Local fitting domains are unchanged.
 
 First step of Coulomb + first step of exchange...
 Exchange contribution is evaluated for MOs 1 to 38.
   1% done.
  13% done.
  25% done.
  38% done.
  56% done.
  75% done.
  89% done.
 100% done.
 Fitting and assembly step of exchange...
 CPU time [min]:     9.879                   Wall time [min]:     0.376
 
 Second step of Coulomb...
   1% done.
  13% done.
  25% done.
  38% done.
  56% done.
  75% done.
  89% done.
 100% done.
 CPU time [min]:     9.914                   Wall time [min]:     0.377
 
 Calculating the exchange-correlation matrix...
                  0.7500*PBEX [au]:    -39.941586438523
                  1.0000*PBEC [au]:     -3.296562104145
 Exchange-correlation energy  [au]:    -43.238148542668
 CPU time [min]:    10.230                   Wall time [min]:     0.395
 
 Coulomb energy + HF exchange [au]:    815.960736805396
 Gradient norm:      3.4480E-04
 DIIS is running in this iteration step.
 RMS of [F,P]:                                         0.00000864871051
 RMS of difference density:                            0.00001494344561
 Gap [au]:  0.08007662
 ALPHA OCC:  38
 BETA  OCC:  38
 
 ***KOHN-SHAM ENERGY IN STEP  11 IS          -587.5082989244722285 [AU]
 
 Step comparison  Energy Drift [au]  DIIS error drift  Gradient drift
       10            1.1482E-06         1.2605E-05       4.8324E-04
 ======================================================================
 ITERATION STEP  12
 CPU time [min]:    10.238                   Wall time [min]:     0.395
 

 SCF control                  : diis
 Damping factor/level shift   : 0.000/0.000
 DIIS [start/end/frequency]   :   2 / 50 /  1

 Constructing Fock-matrix...
 
 Pipek-Mezey localization...
 Step  Convergence
   1  18.757918284069
   2   5.207873475147
   3   5.499298591627
   4   0.995165632041
   5   0.026870027809
   6   0.000491157136
   7   0.000002385198
   8   0.000000112596
   9   0.000000002864
  10   0.000000000162
  11   0.000000000004
  12   0.000000000000
 CPU time [min]:    10.262                   Wall time [min]:     0.396
 
 Constructing local fitting domains...
 Local fitting domains are unchanged.
 
 First step of Coulomb + first step of exchange...
 Exchange contribution is evaluated for MOs 1 to 38.
   1% done.
  13% done.
  25% done.
  38% done.
  56% done.
  75% done.
  89% done.
 100% done.
 Fitting and assembly step of exchange...
 CPU time [min]:    10.727                   Wall time [min]:     0.409
 
 Second step of Coulomb...
   1% done.
  13% done.
  25% done.
  38% done.
  56% done.
  75% done.
  89% done.
 100% done.
 CPU time [min]:    10.763                   Wall time [min]:     0.410
 
 Calculating the exchange-correlation matrix...
                  0.7500*PBEX [au]:    -39.941414915863
                  1.0000*PBEC [au]:     -3.296568518252
 Exchange-correlation energy  [au]:    -43.237983434115
 CPU time [min]:    11.082                   Wall time [min]:     0.428
 
 Coulomb energy + HF exchange [au]:    815.961483989436
 Gradient norm:      7.3954E-05
 DIIS is running in this iteration step.
 RMS of [F,P]:                                         0.00000193985494
 RMS of difference density:                            0.00000350244952
 Gap [au]:  0.08007969
 ALPHA OCC:  38
 BETA  OCC:  38
 
 ***KOHN-SHAM ENERGY IN STEP  12 IS          -587.5082991080114425 [AU]
 
 Step comparison  Energy Drift [au]  DIIS error drift  Gradient drift
       11            1.8354E-07         6.7089E-06       2.7084E-04
 ======================================================================
 ITERATION STEP  13
 CPU time [min]:    11.090                   Wall time [min]:     0.428
 

 SCF control                  : diis
 Damping factor/level shift   : 0.000/0.000
 DIIS [start/end/frequency]   :   2 / 50 /  1

 Constructing Fock-matrix...
 
 Pipek-Mezey localization...
 Step  Convergence
   1  20.448010117035
   2   8.493050714573
   3   9.308275418025
   4   5.519920977813
   5   0.949420584105
   6   0.058954602721
   7   0.002096038865
   8   0.000001053386
   9   0.000000046328
  10   0.000000001195
  11   0.000000000053
  12   0.000000000001
  13   0.000000000000
 CPU time [min]:    11.114                   Wall time [min]:     0.429
 
 Constructing local fitting domains...
 Local fitting domains are unchanged.
 
 First step of Coulomb + first step of exchange...
 Exchange contribution is evaluated for MOs 1 to 38.
   1% done.
  13% done.
  25% done.
  38% done.
  56% done.
  75% done.
  89% done.
 100% done.
 Fitting and assembly step of exchange...
 CPU time [min]:    11.596                   Wall time [min]:     0.442
 
 Second step of Coulomb...
   1% done.
  13% done.
  25% done.
  38% done.
  56% done.
  75% done.
  89% done.
 100% done.
 CPU time [min]:    11.631                   Wall time [min]:     0.443
 
 Calculating the exchange-correlation matrix...
                  0.7500*PBEX [au]:    -39.941389398607
                  1.0000*PBEC [au]:     -3.296570431078
 Exchange-correlation energy  [au]:    -43.237959829685
 CPU time [min]:    11.947                   Wall time [min]:     0.461
 
 Coulomb energy + HF exchange [au]:    815.961883935447
 Gradient norm:      1.0592E-05
 DIIS is running in this iteration step.
 RMS of [F,P]:                                         0.00000026428847
 RMS of difference density:                            0.00000120610953
 Gap [au]:  0.08008216
 ALPHA OCC:  38
 BETA  OCC:  38
 
 ***KOHN-SHAM ENERGY IN STEP  13 IS          -587.5082991148021847 [AU]
 
 Step comparison  Energy Drift [au]  DIIS error drift  Gradient drift
       12            6.7907E-09         1.6756E-06       6.3363E-05
 ======================================================================
 ITERATION STEP  14
 CPU time [min]:    11.955                   Wall time [min]:     0.462
 

 SCF control                  : diis
 Damping factor/level shift   : 0.000/0.000
 DIIS [start/end/frequency]   :   2 / 50 /  1

 Constructing Fock-matrix...
 
 Pipek-Mezey localization...
 Step  Convergence
   1  15.210859915801
   2   5.641685815394
   3   7.954194856424
   4   3.859179931191
   5   0.807552388512
   6   0.029665331890
   7   0.000065955763
   8   0.000002133730
   9   0.000000041417
  10   0.000000001778
  11   0.000000000033
  12   0.000000000002
  13   0.000000000000
 CPU time [min]:    11.980                   Wall time [min]:     0.462
 
 Constructing local fitting domains...
 Local fitting domains are unchanged.
 
 First step of Coulomb + first step of exchange...
 Exchange contribution is evaluated for MOs 1 to 38.
   1% done.
  13% done.
  25% done.
  38% done.
  56% done.
  75% done.
  89% done.
 100% done.
 Fitting and assembly step of exchange...
 CPU time [min]:    12.447                   Wall time [min]:     0.475
 
 Second step of Coulomb...
   1% done.
  13% done.
  25% done.
  38% done.
  56% done.
  75% done.
  89% done.
 100% done.
 CPU time [min]:    12.482                   Wall time [min]:     0.476
 
 Calculating the exchange-correlation matrix...
                  0.7500*PBEX [au]:    -39.941381742873
                  1.0000*PBEC [au]:     -3.296571218047
 Exchange-correlation energy  [au]:    -43.237952960920
 CPU time [min]:    12.798                   Wall time [min]:     0.494
 
 Coulomb energy + HF exchange [au]:    815.961900831002
 Gradient norm:      4.2992E-06
 DIIS is running in this iteration step.
 RMS of [F,P]:                                         0.00000009108643
 RMS of difference density:                            0.00000018532233
 Gap [au]:  0.08008189
 ALPHA OCC:  38
 BETA  OCC:  38
 
 ***KOHN-SHAM ENERGY IN STEP  14 IS          -587.5082991154661158 [AU]
 
 Step comparison  Energy Drift [au]  DIIS error drift  Gradient drift
       13            6.6393E-10         1.7320E-07       6.2923E-06
 
 The SCF iteration has converged.
 An extra iteration will be performed to calculate accurate SCF energy.
 
 ======================================================================
 ITERATION STEP  15
 CPU time [min]:    12.806                   Wall time [min]:     0.494
 

 SCF control                  : diis
 Damping factor/level shift   : 0.000/0.000
 DIIS [start/end/frequency]   :   2 / 50 /  1

 Constructing Fock-matrix...
 
 Pipek-Mezey localization...
 Step  Convergence
   1  17.097041896604
   2   6.639343242961
   3   9.734259041522
   4   3.896478180049
   5   0.643833928560
   6   0.015770217639
   7   0.000233477162
   8   0.000001683477
   9   0.000000114383
  10   0.000000001139
  11   0.000000000082
  12   0.000000000001
  13   0.000000000000
 CPU time [min]:    12.831                   Wall time [min]:     0.495
 
 Constructing local fitting domains...
 Maximum number of atoms in fitting domains:    4
 Average number of atoms in fitting domains:    4.0
 
 First step of Coulomb + first step of exchange...
 Exchange contribution is evaluated for MOs 1 to 38.
   1% done.
  13% done.
  25% done.
  38% done.
  56% done.
  75% done.
  89% done.
 100% done.
 CPU time [min]:    12.940                   Wall time [min]:     0.498
 
 Fitting and assembly step of exchange...
 CPU time [min]:    12.947                   Wall time [min]:     0.499
 
 Second step of Coulomb...
   1% done.
  13% done.
  25% done.
  38% done.
  56% done.
  75% done.
  89% done.
 100% done.
 CPU time [min]:    12.983                   Wall time [min]:     0.500
 
 Calculating the exchange-correlation matrix...
                  0.7500*PBEX [au]:    -39.941382384249
                  1.0000*PBEC [au]:     -3.296571294248
 Exchange-correlation energy  [au]:    -43.237953678496
 CPU time [min]:    13.302                   Wall time [min]:     0.518
 
 Coulomb energy + HF exchange [au]:    815.961915188032
 Gradient norm:      4.2938E-06
 RMS of [F,P]:                                         0.00000012046450
 RMS of difference density:                            0.00000045859113
 Gap [au]:  0.08008169
 ALPHA OCC:  38
 BETA  OCC:  38
 
 ***KOHN-SHAM ENERGY IN STEP  15 IS          -587.5083235161050652 [AU]
 
 Step comparison  Energy Drift [au]  DIIS error drift  Gradient drift
       14            2.4401E-05        -2.9378E-08       5.4644E-09
 Warning! The DIIS error goes uphill (with respect to previous step).
 Warning! The DIIS error goes uphill (with respect to step  14 ).
 ======================================================================
 
 SUCCESS...
 THE SCF ITERATION HAS CONVERGED!
 
                   A   
 FINAL ALPHA OCC:  38
 FINAL BETA  OCC:  38
 
 ***FINAL KOHN-SHAM ENERGY:          -587.5083235161050652 [AU]
 
 Orbital energies [au]:
      Irrep         Alpha          Beta
    1   A         -3.790403      -3.790403
    2   A         -3.790402      -3.790402
    3   A         -3.785538      -3.785538
    4   A         -3.785211      -3.785211
    5   A         -2.368978      -2.368978
    6   A         -2.368122      -2.368122
    7   A         -2.363323      -2.363323
    8   A         -2.363323      -2.363323
    9   A         -2.363322      -2.363322
   10   A         -2.363322      -2.363322
   11   A         -2.362716      -2.362716
   12   A         -2.359522      -2.359522
   13   A         -2.357107      -2.357107
   14   A         -2.357107      -2.357107
   15   A         -2.356804      -2.356804
   16   A         -2.356804      -2.356804
   17   A         -0.393802      -0.393802
   18   A         -0.365060      -0.365060
   19   A         -0.363819      -0.363819
   20   A         -0.363819      -0.363819
   21   A         -0.351743      -0.351743
   22   A         -0.351743      -0.351743
   23   A         -0.337645      -0.337645
   24   A         -0.337645      -0.337645
   25   A         -0.336923      -0.336923
   26   A         -0.336923      -0.336923
   27   A         -0.328938      -0.328938
   28   A         -0.328938      -0.328938
   29   A         -0.327200      -0.327200
   30   A         -0.327200      -0.327200
   31   A         -0.324374      -0.324374
   32   A         -0.323971      -0.323971
   33   A         -0.323971      -0.323971
   34   A         -0.307171      -0.307171
   35   A         -0.307171      -0.307171
   36   A         -0.297402      -0.297402
   37   A         -0.229904      -0.229904
   38   A         -0.202924      -0.202924
 
   39   A         -0.122842      -0.122842
   40   A         -0.049754      -0.049754
   41   A         -0.030346      -0.030346
   42   A         -0.030346      -0.030346
   43   A         -0.006558      -0.006558
   44   A         -0.006558      -0.006558
   45   A          0.001495       0.001495
   46   A          0.036429       0.036429
   47   A          0.036429       0.036429
   48   A          0.083185       0.083185
   49   A          0.090630       0.090630
   50   A          0.091046       0.091046
   51   A          0.091046       0.091046
   52   A          0.092921       0.092921
   53   A          0.131573       0.131573
   54   A          0.153453       0.153453
   55   A          0.214429       0.214429
   56   A          0.241001       0.241001
   57   A          0.293842       0.293842
   58   A          0.293842       0.293842
   59   A          0.312293       0.312293
   60   A          0.312293       0.312293
   61   A          0.343674       0.343674
   62   A          0.343674       0.343674
   63   A          0.345436       0.345436
   64   A          0.401157       0.401157
   65   A          0.402040       0.402040
   66   A          0.402040       0.402040
   67   A          0.407543       0.407543
   68   A          0.407543       0.407543
   69   A          0.436619       0.436619
   70   A          0.436619       0.436619
   71   A          0.436770       0.436770
   72   A          0.440535       0.440535
   73   A          0.440535       0.440535
   74   A          0.493720       0.493720
   75   A          0.493720       0.493720
   76   A          0.525577       0.525577
   77   A          0.525577       0.525577
   78   A          0.552377       0.552377
   79   A          0.554893       0.554893
   80   A          0.554893       0.554893
   81   A          0.639066       0.639066
   82   A          0.639066       0.639066
   83   A          0.678540       0.678540
   84   A          0.829931       0.829931
   85   A          0.829931       0.829931
   86   A          0.846868       0.846868
   87   A          0.971474       0.971474
   88   A          1.062095       1.062095
   89   A          2.039410       2.039410
   90   A          2.116457       2.116457
   91   A          2.168733       2.168733
   92   A          2.461120       2.461120
   93   A          2.602680       2.602680
   94   A          2.602680       2.602680
   95   A          2.602781       2.602781
   96   A          2.602781       2.602781
   97   A          2.602790       2.602790
   98   A          2.602790       2.602790
   99   A          2.604685       2.604685
  100   A          2.604685       2.604685
  101   A          2.604685       2.604685
  102   A          2.604685       2.604685
  103   A          2.608728       2.608728
  104   A          2.609091       2.609091
  105   A          2.609091       2.609091
  106   A          2.610147       2.610147
  107   A          2.610147       2.610147
  108   A          2.610224       2.610224
  109   A          2.610224       2.610224
  110   A          2.613089       2.613089
  111   A          2.613089       2.613089
  112   A          2.613100       2.613100
  113   A          2.613100       2.613100
  114   A          2.615785       2.615785
  115   A          2.615785       2.615785
  116   A          2.619510       2.619510
  117   A          2.619510       2.619510
  118   A          2.646695       2.646695
  119   A          2.685198       2.685198
  120   A          2.772943       2.772943
  121   A         55.920234      55.920234
  122   A         55.977665      55.977665
  123   A         56.008347      56.008347
  124   A         56.259073      56.259073
 
 RETURNING FROM SCF ALGORITHM
 ======================================================================

 ************************ 2023-10-21 21:35:47 *************************
 Executing integ...

 Allocation of 220.0 Gbytes of memory...
 
 
 Number of atoms:                  4
 Charge:                           0
 Number of electrons:             76
 Number of core electrons:        32
 Spin multiplicity:                1
 
                 Cartesian coordinates [bohr]      Atomic mass [AMU]  Z
   1  Ag   -7.39863915    0.00000000    0.00000000   106.905092      47
   2  Ag   -2.53041821    0.00000000    0.00000000   106.905092      47
   3  Ag    2.53041821    0.00000000    0.00000000   106.905092      47
   4  Ag    7.39863915    0.00000000    0.00000000   106.905092      47
 
 This molecule is linear.
 
 Point group: Dxh 
 Computational point group: C1  
 
 Cartesian coordinates in standard orientation [bohr]
   1  Ag    0.00000000    0.00000000   -7.39863915
   2  Ag    0.00000000    0.00000000   -2.53041821
   3  Ag    0.00000000    0.00000000    2.53041821
   4  Ag    0.00000000    0.00000000    7.39863915
 
 Nuclear repulsion energy [au]:        316.753124874413
 
 
 Basis set information:
 
 Maximum angular momentum: i
 Maximum number of contracted Gaussians:   13
 Maximum number of primitive Gaussians:    13
 Spherical harmonic GTOs are used.
 
 
 Conventional basis set:
 
   1  Ag bse_acvtz [ 13s 12p 11d 4f 3g | 8s 8p 7d 4f 3g ]
   2  Ag bse_acvtz [ 13s 12p 11d 4f 3g | 8s 8p 7d 4f 3g ]
   3  Ag bse_acvtz [ 13s 12p 11d 4f 3g | 8s 8p 7d 4f 3g ]
   4  Ag bse_acvtz [ 13s 12p 11d 4f 3g | 8s 8p 7d 4f 3g ]
 
 Basis functions:
            1             2             3             4             5             6             7             8             9            10
    0    1Ag1s         1Ag2s         1Ag3s         1Ag4s         1Ag5s         1Ag6s         1Ag7s         1Ag8s         1Ag1pz        1Ag1py    
    1    1Ag1px        1Ag2pz        1Ag2py        1Ag2px        1Ag3pz        1Ag3py        1Ag3px        1Ag4pz        1Ag4py        1Ag4px    
    2    1Ag5pz        1Ag5py        1Ag5px        1Ag6pz        1Ag6py        1Ag6px        1Ag7pz        1Ag7py        1Ag7px        1Ag8pz    
    3    1Ag8py        1Ag8px        1Ag1d-2       1Ag1d-1       1Ag1d0        1Ag1d+1       1Ag1d+2       1Ag2d-2       1Ag2d-1       1Ag2d0    
    4    1Ag2d+1       1Ag2d+2       1Ag3d-2       1Ag3d-1       1Ag3d0        1Ag3d+1       1Ag3d+2       1Ag4d-2       1Ag4d-1       1Ag4d0    
    5    1Ag4d+1       1Ag4d+2       1Ag5d-2       1Ag5d-1       1Ag5d0        1Ag5d+1       1Ag5d+2       1Ag6d-2       1Ag6d-1       1Ag6d0    
    6    1Ag6d+1       1Ag6d+2       1Ag7d-2       1Ag7d-1       1Ag7d0        1Ag7d+1       1Ag7d+2       1Ag1f-3       1Ag1f-2       1Ag1f-1   
    7    1Ag1f0        1Ag1f+1       1Ag1f+2       1Ag1f+3       1Ag2f-3       1Ag2f-2       1Ag2f-1       1Ag2f0        1Ag2f+1       1Ag2f+2   
    8    1Ag2f+3       1Ag3f-3       1Ag3f-2       1Ag3f-1       1Ag3f0        1Ag3f+1       1Ag3f+2       1Ag3f+3       1Ag4f-3       1Ag4f-2   
    9    1Ag4f-1       1Ag4f0        1Ag4f+1       1Ag4f+2       1Ag4f+3       1Ag1g-4       1Ag1g-3       1Ag1g-2       1Ag1g-1       1Ag1g0    
   10    1Ag1g+1       1Ag1g+2       1Ag1g+3       1Ag1g+4       1Ag2g-4       1Ag2g-3       1Ag2g-2       1Ag2g-1       1Ag2g0        1Ag2g+1   
   11    1Ag2g+2       1Ag2g+3       1Ag2g+4       1Ag3g-4       1Ag3g-3       1Ag3g-2       1Ag3g-1       1Ag3g0        1Ag3g+1       1Ag3g+2   
   12    1Ag3g+3       1Ag3g+4       2Ag1s         2Ag2s         2Ag3s         2Ag4s         2Ag5s         2Ag6s         2Ag7s         2Ag8s     
   13    2Ag1pz        2Ag1py        2Ag1px        2Ag2pz        2Ag2py        2Ag2px        2Ag3pz        2Ag3py        2Ag3px        2Ag4pz    
   14    2Ag4py        2Ag4px        2Ag5pz        2Ag5py        2Ag5px        2Ag6pz        2Ag6py        2Ag6px        2Ag7pz        2Ag7py    
   15    2Ag7px        2Ag8pz        2Ag8py        2Ag8px        2Ag1d-2       2Ag1d-1       2Ag1d0        2Ag1d+1       2Ag1d+2       2Ag2d-2   
   16    2Ag2d-1       2Ag2d0        2Ag2d+1       2Ag2d+2       2Ag3d-2       2Ag3d-1       2Ag3d0        2Ag3d+1       2Ag3d+2       2Ag4d-2   
   17    2Ag4d-1       2Ag4d0        2Ag4d+1       2Ag4d+2       2Ag5d-2       2Ag5d-1       2Ag5d0        2Ag5d+1       2Ag5d+2       2Ag6d-2   
   18    2Ag6d-1       2Ag6d0        2Ag6d+1       2Ag6d+2       2Ag7d-2       2Ag7d-1       2Ag7d0        2Ag7d+1       2Ag7d+2       2Ag1f-3   
   19    2Ag1f-2       2Ag1f-1       2Ag1f0        2Ag1f+1       2Ag1f+2       2Ag1f+3       2Ag2f-3       2Ag2f-2       2Ag2f-1       2Ag2f0    
   20    2Ag2f+1       2Ag2f+2       2Ag2f+3       2Ag3f-3       2Ag3f-2       2Ag3f-1       2Ag3f0        2Ag3f+1       2Ag3f+2       2Ag3f+3   
   21    2Ag4f-3       2Ag4f-2       2Ag4f-1       2Ag4f0        2Ag4f+1       2Ag4f+2       2Ag4f+3       2Ag1g-4       2Ag1g-3       2Ag1g-2   
   22    2Ag1g-1       2Ag1g0        2Ag1g+1       2Ag1g+2       2Ag1g+3       2Ag1g+4       2Ag2g-4       2Ag2g-3       2Ag2g-2       2Ag2g-1   
   23    2Ag2g0        2Ag2g+1       2Ag2g+2       2Ag2g+3       2Ag2g+4       2Ag3g-4       2Ag3g-3       2Ag3g-2       2Ag3g-1       2Ag3g0    
   24    2Ag3g+1       2Ag3g+2       2Ag3g+3       2Ag3g+4       3Ag1s         3Ag2s         3Ag3s         3Ag4s         3Ag5s         3Ag6s     
   25    3Ag7s         3Ag8s         3Ag1pz        3Ag1py        3Ag1px        3Ag2pz        3Ag2py        3Ag2px        3Ag3pz        3Ag3py    
   26    3Ag3px        3Ag4pz        3Ag4py        3Ag4px        3Ag5pz        3Ag5py        3Ag5px        3Ag6pz        3Ag6py        3Ag6px    
   27    3Ag7pz        3Ag7py        3Ag7px        3Ag8pz        3Ag8py        3Ag8px        3Ag1d-2       3Ag1d-1       3Ag1d0        3Ag1d+1   
   28    3Ag1d+2       3Ag2d-2       3Ag2d-1       3Ag2d0        3Ag2d+1       3Ag2d+2       3Ag3d-2       3Ag3d-1       3Ag3d0        3Ag3d+1   
   29    3Ag3d+2       3Ag4d-2       3Ag4d-1       3Ag4d0        3Ag4d+1       3Ag4d+2       3Ag5d-2       3Ag5d-1       3Ag5d0        3Ag5d+1   
   30    3Ag5d+2       3Ag6d-2       3Ag6d-1       3Ag6d0        3Ag6d+1       3Ag6d+2       3Ag7d-2       3Ag7d-1       3Ag7d0        3Ag7d+1   
   31    3Ag7d+2       3Ag1f-3       3Ag1f-2       3Ag1f-1       3Ag1f0        3Ag1f+1       3Ag1f+2       3Ag1f+3       3Ag2f-3       3Ag2f-2   
   32    3Ag2f-1       3Ag2f0        3Ag2f+1       3Ag2f+2       3Ag2f+3       3Ag3f-3       3Ag3f-2       3Ag3f-1       3Ag3f0        3Ag3f+1   
   33    3Ag3f+2       3Ag3f+3       3Ag4f-3       3Ag4f-2       3Ag4f-1       3Ag4f0        3Ag4f+1       3Ag4f+2       3Ag4f+3       3Ag1g-4   
   34    3Ag1g-3       3Ag1g-2       3Ag1g-1       3Ag1g0        3Ag1g+1       3Ag1g+2       3Ag1g+3       3Ag1g+4       3Ag2g-4       3Ag2g-3   
   35    3Ag2g-2       3Ag2g-1       3Ag2g0        3Ag2g+1       3Ag2g+2       3Ag2g+3       3Ag2g+4       3Ag3g-4       3Ag3g-3       3Ag3g-2   
   36    3Ag3g-1       3Ag3g0        3Ag3g+1       3Ag3g+2       3Ag3g+3       3Ag3g+4       4Ag1s         4Ag2s         4Ag3s         4Ag4s     
   37    4Ag5s         4Ag6s         4Ag7s         4Ag8s         4Ag1pz        4Ag1py        4Ag1px        4Ag2pz        4Ag2py        4Ag2px    
   38    4Ag3pz        4Ag3py        4Ag3px        4Ag4pz        4Ag4py        4Ag4px        4Ag5pz        4Ag5py        4Ag5px        4Ag6pz    
   39    4Ag6py        4Ag6px        4Ag7pz        4Ag7py        4Ag7px        4Ag8pz        4Ag8py        4Ag8px        4Ag1d-2       4Ag1d-1   
   40    4Ag1d0        4Ag1d+1       4Ag1d+2       4Ag2d-2       4Ag2d-1       4Ag2d0        4Ag2d+1       4Ag2d+2       4Ag3d-2       4Ag3d-1   
   41    4Ag3d0        4Ag3d+1       4Ag3d+2       4Ag4d-2       4Ag4d-1       4Ag4d0        4Ag4d+1       4Ag4d+2       4Ag5d-2       4Ag5d-1   
   42    4Ag5d0        4Ag5d+1       4Ag5d+2       4Ag6d-2       4Ag6d-1       4Ag6d0        4Ag6d+1       4Ag6d+2       4Ag7d-2       4Ag7d-1   
   43    4Ag7d0        4Ag7d+1       4Ag7d+2       4Ag1f-3       4Ag1f-2       4Ag1f-1       4Ag1f0        4Ag1f+1       4Ag1f+2       4Ag1f+3   
   44    4Ag2f-3       4Ag2f-2       4Ag2f-1       4Ag2f0        4Ag2f+1       4Ag2f+2       4Ag2f+3       4Ag3f-3       4Ag3f-2       4Ag3f-1   
   45    4Ag3f0        4Ag3f+1       4Ag3f+2       4Ag3f+3       4Ag4f-3       4Ag4f-2       4Ag4f-1       4Ag4f0        4Ag4f+1       4Ag4f+2   
   46    4Ag4f+3       4Ag1g-4       4Ag1g-3       4Ag1g-2       4Ag1g-1       4Ag1g0        4Ag1g+1       4Ag1g+2       4Ag1g+3       4Ag1g+4   
   47    4Ag2g-4       4Ag2g-3       4Ag2g-2       4Ag2g-1       4Ag2g0        4Ag2g+1       4Ag2g+2       4Ag2g+3       4Ag2g+4       4Ag3g-4   
   48    4Ag3g-3       4Ag3g-2       4Ag3g-1       4Ag3g0        4Ag3g+1       4Ag3g+2       4Ag3g+3       4Ag3g+4   
 
 Maximum number of basis functions per shell:   35
 Total number of basis functions:    488
 
 
 Fitting basis set for the SCF calculation:
 
   1  Ag def2-qzvpp-ri-jk [ 13s 12p 10d 9f 6g 3h 2i | 11s 10p 9d 8f 6g 3h 2i ]
   2  Ag def2-qzvpp-ri-jk [ 13s 12p 10d 9f 6g 3h 2i | 11s 10p 9d 8f 6g 3h 2i ]
   3  Ag def2-qzvpp-ri-jk [ 13s 12p 10d 9f 6g 3h 2i | 11s 10p 9d 8f 6g 3h 2i ]
   4  Ag def2-qzvpp-ri-jk [ 13s 12p 10d 9f 6g 3h 2i | 11s 10p 9d 8f 6g 3h 2i ]
 
 Basis functions:
            1             2             3             4             5             6             7             8             9            10
    0    1Ag1s         1Ag2s         1Ag3s         1Ag4s         1Ag5s         1Ag6s         1Ag7s         1Ag8s         1Ag9s         1Ag10s    
    1    1Ag11s        1Ag1pz        1Ag1py        1Ag1px        1Ag2pz        1Ag2py        1Ag2px        1Ag3pz        1Ag3py        1Ag3px    
    2    1Ag4pz        1Ag4py        1Ag4px        1Ag5pz        1Ag5py        1Ag5px        1Ag6pz        1Ag6py        1Ag6px        1Ag7pz    
    3    1Ag7py        1Ag7px        1Ag8pz        1Ag8py        1Ag8px        1Ag9pz        1Ag9py        1Ag9px        1Ag10pz       1Ag10py   
    4    1Ag10px       1Ag1d-2       1Ag1d-1       1Ag1d0        1Ag1d+1       1Ag1d+2       1Ag2d-2       1Ag2d-1       1Ag2d0        1Ag2d+1   
    5    1Ag2d+2       1Ag3d-2       1Ag3d-1       1Ag3d0        1Ag3d+1       1Ag3d+2       1Ag4d-2       1Ag4d-1       1Ag4d0        1Ag4d+1   
    6    1Ag4d+2       1Ag5d-2       1Ag5d-1       1Ag5d0        1Ag5d+1       1Ag5d+2       1Ag6d-2       1Ag6d-1       1Ag6d0        1Ag6d+1   
    7    1Ag6d+2       1Ag7d-2       1Ag7d-1       1Ag7d0        1Ag7d+1       1Ag7d+2       1Ag8d-2       1Ag8d-1       1Ag8d0        1Ag8d+1   
    8    1Ag8d+2       1Ag9d-2       1Ag9d-1       1Ag9d0        1Ag9d+1       1Ag9d+2       1Ag1f-3       1Ag1f-2       1Ag1f-1       1Ag1f0    
    9    1Ag1f+1       1Ag1f+2       1Ag1f+3       1Ag2f-3       1Ag2f-2       1Ag2f-1       1Ag2f0        1Ag2f+1       1Ag2f+2       1Ag2f+3   
   10    1Ag3f-3       1Ag3f-2       1Ag3f-1       1Ag3f0        1Ag3f+1       1Ag3f+2       1Ag3f+3       1Ag4f-3       1Ag4f-2       1Ag4f-1   
   11    1Ag4f0        1Ag4f+1       1Ag4f+2       1Ag4f+3       1Ag5f-3       1Ag5f-2       1Ag5f-1       1Ag5f0        1Ag5f+1       1Ag5f+2   
   12    1Ag5f+3       1Ag6f-3       1Ag6f-2       1Ag6f-1       1Ag6f0        1Ag6f+1       1Ag6f+2       1Ag6f+3       1Ag7f-3       1Ag7f-2   
   13    1Ag7f-1       1Ag7f0        1Ag7f+1       1Ag7f+2       1Ag7f+3       1Ag8f-3       1Ag8f-2       1Ag8f-1       1Ag8f0        1Ag8f+1   
   14    1Ag8f+2       1Ag8f+3       1Ag1g-4       1Ag1g-3       1Ag1g-2       1Ag1g-1       1Ag1g0        1Ag1g+1       1Ag1g+2       1Ag1g+3   
   15    1Ag1g+4       1Ag2g-4       1Ag2g-3       1Ag2g-2       1Ag2g-1       1Ag2g0        1Ag2g+1       1Ag2g+2       1Ag2g+3       1Ag2g+4   
   16    1Ag3g-4       1Ag3g-3       1Ag3g-2       1Ag3g-1       1Ag3g0        1Ag3g+1       1Ag3g+2       1Ag3g+3       1Ag3g+4       1Ag4g-4   
   17    1Ag4g-3       1Ag4g-2       1Ag4g-1       1Ag4g0        1Ag4g+1       1Ag4g+2       1Ag4g+3       1Ag4g+4       1Ag5g-4       1Ag5g-3   
   18    1Ag5g-2       1Ag5g-1       1Ag5g0        1Ag5g+1       1Ag5g+2       1Ag5g+3       1Ag5g+4       1Ag6g-4       1Ag6g-3       1Ag6g-2   
   19    1Ag6g-1       1Ag6g0        1Ag6g+1       1Ag6g+2       1Ag6g+3       1Ag6g+4       1Ag1h-5       1Ag1h-4       1Ag1h-3       1Ag1h-2   
   20    1Ag1h-1       1Ag1h0        1Ag1h+1       1Ag1h+2       1Ag1h+3       1Ag1h+4       1Ag1h+5       1Ag2h-5       1Ag2h-4       1Ag2h-3   
   21    1Ag2h-2       1Ag2h-1       1Ag2h0        1Ag2h+1       1Ag2h+2       1Ag2h+3       1Ag2h+4       1Ag2h+5       1Ag3h-5       1Ag3h-4   
   22    1Ag3h-3       1Ag3h-2       1Ag3h-1       1Ag3h0        1Ag3h+1       1Ag3h+2       1Ag3h+3       1Ag3h+4       1Ag3h+5       1Ag1i-6   
   23    1Ag1i-5       1Ag1i-4       1Ag1i-3       1Ag1i-2       1Ag1i-1       1Ag1i0        1Ag1i+1       1Ag1i+2       1Ag1i+3       1Ag1i+4   
   24    1Ag1i+5       1Ag1i+6       1Ag2i-6       1Ag2i-5       1Ag2i-4       1Ag2i-3       1Ag2i-2       1Ag2i-1       1Ag2i0        1Ag2i+1   
   25    1Ag2i+2       1Ag2i+3       1Ag2i+4       1Ag2i+5       1Ag2i+6       2Ag1s         2Ag2s         2Ag3s         2Ag4s         2Ag5s     
   26    2Ag6s         2Ag7s         2Ag8s         2Ag9s         2Ag10s        2Ag11s        2Ag1pz        2Ag1py        2Ag1px        2Ag2pz    
   27    2Ag2py        2Ag2px        2Ag3pz        2Ag3py        2Ag3px        2Ag4pz        2Ag4py        2Ag4px        2Ag5pz        2Ag5py    
   28    2Ag5px        2Ag6pz        2Ag6py        2Ag6px        2Ag7pz        2Ag7py        2Ag7px        2Ag8pz        2Ag8py        2Ag8px    
   29    2Ag9pz        2Ag9py        2Ag9px        2Ag10pz       2Ag10py       2Ag10px       2Ag1d-2       2Ag1d-1       2Ag1d0        2Ag1d+1   
   30    2Ag1d+2       2Ag2d-2       2Ag2d-1       2Ag2d0        2Ag2d+1       2Ag2d+2       2Ag3d-2       2Ag3d-1       2Ag3d0        2Ag3d+1   
   31    2Ag3d+2       2Ag4d-2       2Ag4d-1       2Ag4d0        2Ag4d+1       2Ag4d+2       2Ag5d-2       2Ag5d-1       2Ag5d0        2Ag5d+1   
   32    2Ag5d+2       2Ag6d-2       2Ag6d-1       2Ag6d0        2Ag6d+1       2Ag6d+2       2Ag7d-2       2Ag7d-1       2Ag7d0        2Ag7d+1   
   33    2Ag7d+2       2Ag8d-2       2Ag8d-1       2Ag8d0        2Ag8d+1       2Ag8d+2       2Ag9d-2       2Ag9d-1       2Ag9d0        2Ag9d+1   
   34    2Ag9d+2       2Ag1f-3       2Ag1f-2       2Ag1f-1       2Ag1f0        2Ag1f+1       2Ag1f+2       2Ag1f+3       2Ag2f-3       2Ag2f-2   
   35    2Ag2f-1       2Ag2f0        2Ag2f+1       2Ag2f+2       2Ag2f+3       2Ag3f-3       2Ag3f-2       2Ag3f-1       2Ag3f0        2Ag3f+1   
   36    2Ag3f+2       2Ag3f+3       2Ag4f-3       2Ag4f-2       2Ag4f-1       2Ag4f0        2Ag4f+1       2Ag4f+2       2Ag4f+3       2Ag5f-3   
   37    2Ag5f-2       2Ag5f-1       2Ag5f0        2Ag5f+1       2Ag5f+2       2Ag5f+3       2Ag6f-3       2Ag6f-2       2Ag6f-1       2Ag6f0    
   38    2Ag6f+1       2Ag6f+2       2Ag6f+3       2Ag7f-3       2Ag7f-2       2Ag7f-1       2Ag7f0        2Ag7f+1       2Ag7f+2       2Ag7f+3   
   39    2Ag8f-3       2Ag8f-2       2Ag8f-1       2Ag8f0        2Ag8f+1       2Ag8f+2       2Ag8f+3       2Ag1g-4       2Ag1g-3       2Ag1g-2   
   40    2Ag1g-1       2Ag1g0        2Ag1g+1       2Ag1g+2       2Ag1g+3       2Ag1g+4       2Ag2g-4       2Ag2g-3       2Ag2g-2       2Ag2g-1   
[...]
   31   A         -0.324401      -0.324401
   32   A         -0.324401      -0.324401
   33   A         -0.323803      -0.323803
   34   A         -0.306493      -0.306493
   35   A         -0.306493      -0.306493
   36   A         -0.296546      -0.296546
   37   A         -0.230729      -0.230729
   38   A         -0.204184      -0.204184
 
   39   A         -0.123211      -0.123211
   40   A         -0.051224      -0.051224
   41   A         -0.034401      -0.034401
   42   A         -0.034401      -0.034401
   43   A         -0.011801      -0.011801
   44   A         -0.011801      -0.011801
   45   A         -0.006416      -0.006416
   46   A          0.014057       0.014057
   47   A          0.017677       0.017677
   48   A          0.020976       0.020976
   49   A          0.020976       0.020976
   50   A          0.027148       0.027148
   51   A          0.032358       0.032358
   52   A          0.034685       0.034685
   53   A          0.034685       0.034685
   54   A          0.035525       0.035525
   55   A          0.035525       0.035525
   56   A          0.059303       0.059303
   57   A          0.059303       0.059303
   58   A          0.059983       0.059983
   59   A          0.059983       0.059983
   60   A          0.060333       0.060333
   61   A          0.062096       0.062096
   62   A          0.076462       0.076462
   63   A          0.083500       0.083500
   64   A          0.086143       0.086143
   65   A          0.086143       0.086143
   66   A          0.095834       0.095834
   67   A          0.095834       0.095834
   68   A          0.102056       0.102056
   69   A          0.102056       0.102056
   70   A          0.102596       0.102596
   71   A          0.114932       0.114932
   72   A          0.135075       0.135075
   73   A          0.135075       0.135075
   74   A          0.146680       0.146680
   75   A          0.146965       0.146965
   76   A          0.146965       0.146965
   77   A          0.151346       0.151346
   78   A          0.151346       0.151346
   79   A          0.163660       0.163660
   80   A          0.163660       0.163660
   81   A          0.172400       0.172400
   82   A          0.175689       0.175689
   83   A          0.175689       0.175689
   84   A          0.181217       0.181217
   85   A          0.183253       0.183253
   86   A          0.188585       0.188585
   87   A          0.188585       0.188585
   88   A          0.197587       0.197587
   89   A          0.197587       0.197587
   90   A          0.210052       0.210052
   91   A          0.229493       0.229493
   92   A          0.232266       0.232266
   93   A          0.232266       0.232266
   94   A          0.260419       0.260419
   95   A          0.289229       0.289229
   96   A          0.294771       0.294771
   97   A          0.294771       0.294771
   98   A          0.352942       0.352942
   99   A          0.354800       0.354800
  100   A          0.354800       0.354800
  101   A          0.362865       0.362865
  102   A          0.362865       0.362865
  103   A          0.384548       0.384548
  104   A          0.384548       0.384548
  105   A          0.387742       0.387742
  106   A          0.425666       0.425666
  107   A          0.425666       0.425666
  108   A          0.434444       0.434444
  109   A          0.434444       0.434444
  110   A          0.442617       0.442617
  111   A          0.461617       0.461617
  112   A          0.461618       0.461618
  113   A          0.467147       0.467147
  114   A          0.482002       0.482002
  115   A          0.482002       0.482002
  116   A          0.490315       0.490315
  117   A          0.499657       0.499657
  118   A          0.499657       0.499657
  119   A          0.510963       0.510963
  120   A          0.594134       0.594134
  121   A          0.605016       0.605016
  122   A          0.609580       0.609580
  123   A          0.609580       0.609580
  124   A          0.627419       0.627419
  125   A          0.627419       0.627419
  126   A          0.678479       0.678479
  127   A          0.683312       0.683312
  128   A          0.683312       0.683312
  129   A          0.701849       0.701849
  130   A          0.701850       0.701850
  131   A          0.712023       0.712023
  132   A          0.712023       0.712023
  133   A          0.728285       0.728285
  134   A          0.785667       0.785667
  135   A          0.785668       0.785668
  136   A          0.801846       0.801846
  137   A          0.801846       0.801846
  138   A          0.807573       0.807573
  139   A          0.807573       0.807573
  140   A          0.819551       0.819551
  141   A          0.819551       0.819551
  142   A          0.820728       0.820728
  143   A          0.830547       0.830547
  144   A          0.830547       0.830547
  145   A          0.855949       0.855949
  146   A          0.855949       0.855949
  147   A          0.866361       0.866361
  148   A          0.883343       0.883343
  149   A          0.883343       0.883343
  150   A          0.949952       0.949952
  151   A          0.949952       0.949952
  152   A          0.969151       0.969151
  153   A          0.998400       0.998400
  154   A          0.998400       0.998400
  155   A          1.049014       1.049014
  156   A          1.064885       1.064885
  157   A          1.064885       1.064885
  158   A          1.086718       1.086718
  159   A          1.086718       1.086718
  160   A          1.113130       1.113130
  161   A          1.128832       1.128832
  162   A          1.244497       1.244497
  163   A          1.244497       1.244497
  164   A          1.249089       1.249089
  165   A          1.249089       1.249089
  166   A          1.250322       1.250322
  167   A          1.254100       1.254100
  168   A          1.254100       1.254100
  169   A          1.256031       1.256031
  170   A          1.256031       1.256031
  171   A          1.284660       1.284660
  172   A          1.284661       1.284661
  173   A          1.322819       1.322819
  174   A          1.322819       1.322819
  175   A          1.325836       1.325836
  176   A          1.440928       1.440928
  177   A          1.440928       1.440928
  178   A          1.451580       1.451580
  179   A          1.451580       1.451580
  180   A          1.464321       1.464321
  181   A          1.464321       1.464321
  182   A          1.652532       1.652532
  183   A          1.706852       1.706852
  184   A          1.737331       1.737331
  185   A          1.755020       1.755020
  186   A          1.862657       1.862657
  187   A          1.996704       1.996704
  188   A          1.996705       1.996705
  189   A          2.007457       2.007457
  190   A          2.007457       2.007457
  191   A          2.015202       2.015202
  192   A          2.015202       2.015202
  193   A          2.020394       2.020394
  194   A          2.020394       2.020394
  195   A          2.035986       2.035986
  196   A          2.035986       2.035986
  197   A          2.047451       2.047451
  198   A          2.054942       2.054942
  199   A          2.054942       2.054942
  200   A          2.069307       2.069307
  201   A          2.069308       2.069308
  202   A          2.132590       2.132590
  203   A          2.132590       2.132590
  204   A          2.154923       2.154923
  205   A          2.159186       2.159186
  206   A          2.159186       2.159186
  207   A          2.165495       2.165495
  208   A          2.165495       2.165495
  209   A          2.197550       2.197550
  210   A          2.197550       2.197550
  211   A          2.286479       2.286479
  212   A          2.286479       2.286479
  213   A          2.330664       2.330664
  214   A          2.342396       2.342396
  215   A          2.345800       2.345800
  216   A          2.345800       2.345800
  217   A          2.352041       2.352041
  218   A          2.406164       2.406164
  219   A          2.406165       2.406165
  220   A          2.473568       2.473568
  221   A          2.473568       2.473568
  222   A          2.484689       2.484689
  223   A          2.486322       2.486322
  224   A          2.486322       2.486322
  225   A          2.625271       2.625271
  226   A          2.629110       2.629110
  227   A          2.629110       2.629110
  228   A          2.678262       2.678262
  229   A          2.678262       2.678262
  230   A          2.770717       2.770717
  231   A          2.770717       2.770717
  232   A          2.774578       2.774578
  233   A          2.774578       2.774578
  234   A          2.781821       2.781821
  235   A          2.781821       2.781821
  236   A          2.793571       2.793571
  237   A          2.793573       2.793573
  238   A          2.793598       2.793598
  239   A          2.793600       2.793600
  240   A          2.797637       2.797637
  241   A          2.804195       2.804195
  242   A          2.804197       2.804197
  243   A          2.805798       2.805798
  244   A          2.805800       2.805800
  245   A          2.812400       2.812400
  246   A          2.812400       2.812400
  247   A          2.825473       2.825473
  248   A          2.825473       2.825473
  249   A          2.840878       2.840878
  250   A          2.870553       2.870553
  251   A          2.893431       2.893431
  252   A          2.917335       2.917335
  253   A          2.917335       2.917335
  254   A          2.953621       2.953621
  255   A          2.953621       2.953621
  256   A          2.998650       2.998650
  257   A          2.998650       2.998650
  258   A          3.216637       3.216637
  259   A          3.216637       3.216637
  260   A          3.225832       3.225832
  261   A          3.225832       3.225832
  262   A          3.467418       3.467418
  263   A          3.574085       3.574085
  264   A          3.674431       3.674431
  265   A          3.674432       3.674432
  266   A          3.684140       3.684140
  267   A          3.684141       3.684141
  268   A          3.714404       3.714404
  269   A          3.714405       3.714405
  270   A          3.736918       3.736918
  271   A          3.736918       3.736918
  272   A          3.754373       3.754373
  273   A          3.754375       3.754375
  274   A          3.782562       3.782562
  275   A          3.802042       3.802042
  276   A          3.802042       3.802042
  277   A          3.823495       3.823495
  278   A          3.890834       3.890834
  279   A          3.890834       3.890834
  280   A          3.992823       3.992823
  281   A          3.992823       3.992823
  282   A          4.035717       4.035717
  283   A          4.319447       4.319447
  284   A          4.630382       4.630382
  285   A          4.655781       4.655781
  286   A          4.681753       4.681753
  287   A          4.681753       4.681753
  288   A          4.683030       4.683030
  289   A          4.683030       4.683030
  290   A          4.690207       4.690207
  291   A          4.690207       4.690207
  292   A          4.707177       4.707177
  293   A          4.707177       4.707177
  294   A          4.707628       4.707628
  295   A          4.707628       4.707628
  296   A          4.723293       4.723293
  297   A          4.723293       4.723293
  298   A          4.753506       4.753506
  299   A          4.753506       4.753506
  300   A          4.765376       4.765376
  301   A          4.807447       4.807447
  302   A          4.807447       4.807447
  303   A          4.818253       4.818253
  304   A          4.818253       4.818253
  305   A          4.846518       4.846518
  306   A          4.846518       4.846518
  307   A          4.871890       4.871890
  308   A          4.910143       4.910143
  309   A          4.917791       4.917791
  310   A          4.917791       4.917791
  311   A          5.004371       5.004371
  312   A          5.004371       5.004371
  313   A          5.125778       5.125778
  314   A          5.235966       5.235966
  315   A          5.961513       5.961513
  316   A          6.819227       6.819227
  317   A          6.819227       6.819227
  318   A          6.846375       6.846375
  319   A          6.846379       6.846379
  320   A          6.901657       6.901657
  321   A          6.901661       6.901661
  322   A          6.909059       6.909059
  323   A          6.909059       6.909059
  324   A          6.916362       6.916362
  325   A          6.916362       6.916362
  326   A          6.924980       6.924980
  327   A          6.924994       6.924994
  328   A          6.924997       6.924997
  329   A          6.925011       6.925011
  330   A          6.933171       6.933171
  331   A          6.933190       6.933190
  332   A          6.934311       6.934311
  333   A          6.934330       6.934330
  334   A          6.938604       6.938604
  335   A          6.938604       6.938604
  336   A          6.948699       6.948699
  337   A          6.948699       6.948699
  338   A          6.957382       6.957382
  339   A          6.957382       6.957382
  340   A          6.961805       6.961805
  341   A          7.008497       7.008497
  342   A          7.008500       7.008500
  343   A          7.047390       7.047390
  344   A          7.047394       7.047394
  345   A          7.082940       7.082940
  346   A          7.227846       7.227846
  347   A          7.227846       7.227846
  348   A          7.336654       7.336654
  349   A          7.336654       7.336654
  350   A          7.506147       7.506147
  351   A          7.544264       7.544264
  352   A          8.355804       8.355804
  353   A          8.635476       8.635476
  354   A          8.635476       8.635476
  355   A          8.724356       8.724356
  356   A          8.724356       8.724356
  357   A          8.744211       8.744211
  358   A          8.744211       8.744211
  359   A          8.803743       8.803743
  360   A          8.803744       8.803744
  361   A          8.939719       8.939719
  362   A          9.316198       9.316198
  363   A          9.423517       9.423517
  364   A          9.967892       9.967892
  365   A         10.358300      10.358300
  366   A         10.358303      10.358303
  367   A         10.366095      10.366095
  368   A         10.366099      10.366099
  369   A         10.389236      10.389236
  370   A         10.389239      10.389239
  371   A         10.413386      10.413386
  372   A         10.413386      10.413386
  373   A         10.420340      10.420340
  374   A         10.420341      10.420341
  375   A         10.460105      10.460105
  376   A         10.460106      10.460106
  377   A         10.497269      10.497269
  378   A         10.497269      10.497269
  379   A         10.562179      10.562179
  380   A         10.562179      10.562179
  381   A         10.611535      10.611535
  382   A         10.713340      10.713340
  383   A         10.767544      10.767544
  384   A         10.839780      10.839780
  385   A         11.963068      11.963068
  386   A         11.963078      11.963078
  387   A         11.966485      11.966485
  388   A         11.966485      11.966485
  389   A         11.971480      11.971480
  390   A         11.971480      11.971480
  391   A         11.982798      11.982798
  392   A         11.982806      11.982806
  393   A         11.984752      11.984752
  394   A         11.984752      11.984752
  395   A         11.996464      11.996464
  396   A         11.996464      11.996464
  397   A         12.019558      12.019558
  398   A         12.019567      12.019567
  399   A         12.058196      12.058196
  400   A         12.058196      12.058196
  401   A         12.067667      12.067667
  402   A         12.067677      12.067677
  403   A         12.087969      12.087969
  404   A         12.087969      12.087969
  405   A         12.140448      12.140448
  406   A         12.140448      12.140448
  407   A         12.149717      12.149717
  408   A         12.151541      12.151541
  409   A         12.205859      12.205859
  410   A         12.205859      12.205859
  411   A         12.305355      12.305355
  412   A         12.368848      12.368848
  413   A         14.321395      14.321395
  414   A         15.250840      15.250840
  415   A         15.250840      15.250840
  416   A         15.272324      15.272324
  417   A         15.272337      15.272337
  418   A         15.309041      15.309041
  419   A         15.309051      15.309051
  420   A         15.315041      15.315041
  421   A         15.315041      15.315041
  422   A         15.319552      15.319552
  423   A         15.319552      15.319552
  424   A         15.324655      15.324655
  425   A         15.324657      15.324657
  426   A         15.324663      15.324663
  427   A         15.324664      15.324664
  428   A         15.327757      15.327757
  429   A         15.331002      15.331002
  430   A         15.331010      15.331010
  431   A         15.331737      15.331737
  432   A         15.331745      15.331745
  433   A         15.334725      15.334725
  434   A         15.334725      15.334725
  435   A         15.341693      15.341693
  436   A         15.341693      15.341693
  437   A         15.347656      15.347656
  438   A         15.347656      15.347656
  439   A         15.375330      15.375330
  440   A         15.382711      15.382711
  441   A         15.382722      15.382722
  442   A         15.410205      15.410205
  443   A         15.410221      15.410221
  444   A         15.471231      15.471231
  445   A         15.541531      15.541531
  446   A         15.541531      15.541531
  447   A         15.621776      15.621776
  448   A         15.621776      15.621776
  449   A         15.875699      15.875699
  450   A         15.984122      15.984122
  451   A         16.397101      16.397101
  452   A         21.738977      21.738977
  453   A         27.016477      27.016477
  454   A         27.016490      27.016490
  455   A         27.022574      27.022574
  456   A         27.022586      27.022586
  457   A         27.040967      27.040967
  458   A         27.040980      27.040980
  459   A         27.056375      27.056375
  460   A         27.056375      27.056375
  461   A         27.065238      27.065238
  462   A         27.065252      27.065252
  463   A         27.092772      27.092772
  464   A         27.092772      27.092772
  465   A         27.126273      27.126273
  466   A         27.126273      27.126273
  467   A         27.179793      27.179793
  468   A         27.179793      27.179793
  469   A         27.264556      27.264556
  470   A         27.285744      27.285744
  471   A         27.401404      27.401404
  472   A         27.631014      27.631014
  473   A         44.679743      44.679743
  474   A         44.679743      44.679743
  475   A         44.752257      44.752257
  476   A         44.752257      44.752257
  477   A         44.772777      44.772777
  478   A         44.772777      44.772777
  479   A         44.820475      44.820475
  480   A         44.820475      44.820475
  481   A         44.920210      44.920210
  482   A         45.101940      45.101940
  483   A         45.404050      45.404050
  484   A         45.933123      45.933123
  485   A         61.776613      61.776613
  486   A         61.986059      61.986059
  487   A         62.881334      62.881334
  488   A         66.407259      66.407259
 
 RETURNING FROM SCF ALGORITHM
 ======================================================================
 
 ************************ 2023-10-21 21:37:45 *************************
                      Normal termination of mrcc.
 **********************************************************************
