 vasp.6.4.0 14Feb23 (build Dec 05 2023 14:15:48) complex                        
  
 executed on             LinuxIFC date 2023.12.11  12:12:20
 running  256 mpi-ranks, with    1 threads/rank, on   32 nodes
 distrk:  each k-point on  256 cores,    1 groups
 distr:  one band on NCORE=  16 cores,   16 groups


--------------------------------------------------------------------------------------------------------


 INCAR:
   SYSTEM = MgO-rocksalt
   ISMEAR = 0
   SIGMA = 0.05
   EDIFF = 1E-4
   ALGO = ALL
   ISTART = 0
   IBRION = -1
   NSW = 0
   ISYM = 0
   METAGGA = M06L
   ENCUT = 520
   PREC = Accurate
   LASPH = .TRUE.
   LREAL = Auto
   ISPIN = 1
   NELM = 20000
   NELMIN = 8
   NCORE = 16
   LWAVE = .FALSE.
   LCHARG = .FALSE.

 POTCAR:    PAW_PBE Au 04Oct2007                  
 POTCAR:    PAW_PBE Au 04Oct2007                  
   SHA256 =  d0044ae04e2bdce24051b198fc5c053d722a5bc6fe3c3b100514a13fc5d2db88 Au/POTCAR             
   COPYR  = (c) Copyright 04Oct2007 Georg Kresse                                                    
   COPYR  = This file is part of the software VASP. Any use, copying, and all other rights are regul
   COPYR  = If you do not have a valid VASP license, you may not use, copy or distribute this file. 
   VRHFIN =Au: s1d10                                                                                
   LEXCH  = PE                                                                                      
   EATOM  =   926.0867 eV,   68.0654 Ry                                                             
                                                                                                    
   TITEL  = PAW_PBE Au 04Oct2007                                                                    
   LULTRA =        F    use ultrasoft PP ?                                                          
   IUNSCR =        1    unscreen: 0-lin 1-nonlin 2-no                                               
   RPACOR =    2.330    partial core radius                                                         
   POMASS =  196.966; ZVAL   =   11.000    mass and valenz                                          
   RCORE  =    2.500    outmost cutoff radius                                                       
   RWIGS  =    2.840; RWIGS  =    1.503    wigner-seitz radius (au A)                               
   ENMAX  =  229.943; ENMIN  =  172.457 eV                                                          
   ICORE  =        3    local potential                                                             
   LCOR   =        T    correct aug charges                                                         
   LPAW   =        T    paw PP                                                                      
   EAUG   =  356.670                                                                                
   DEXC   =    0.000                                                                                
   RMAX   =    2.562    core radius for proj-oper                                                   
   RAUG   =    1.300    factor for augmentation sphere                                              
   RDEP   =    2.598    radius for radial grids                                                     
   RDEPT  =    2.193    core radius for aug-charge                                                  
                                                                                                    
   Atomic configuration                                                                             
   16 entries                                                                                       
     n  l   j            E        occ.                                                              
     1  0  0.50    -80748.5001   2.0000                                                             
     2  0  0.50    -14244.7466   2.0000                                                             
     2  1  1.50    -12310.9591   6.0000                                                             
     3  0  0.50     -3362.1768   2.0000                                                             
     3  1  1.50     -2801.5463   6.0000                                                             
     3  2  2.50     -2203.8206  10.0000                                                             
     4  0  0.50      -729.8168   2.0000                                                             
     4  1  1.50      -546.0527   6.0000                                                             
     4  2  2.50      -325.7302  10.0000                                                             
     4  3  3.50       -81.1472  14.0000                                                             
     5  0  0.50      -108.3201   2.0000                                                             
     5  1  1.50       -59.7479   6.0000                                                             
     5  2  2.50        -6.8783  10.0000                                                             
     6  0  0.50        -5.7602   1.0000                                                             
     6  1  1.50        -6.8029   0.0000                                                             
     5  3  2.50        -1.3606   0.0000                                                             
   Description                                                                                      
     l       E           TYP  RCUT    TYP  RCUT                                                     
     2     -6.8782861     23  2.500                                                                 
     2     -8.2388687     23  2.500                                                                 
     0     -5.7601759     23  2.500                                                                 
     0     -0.8493231     23  2.500                                                                 
     1     -2.7211652     23  2.500                                                                 
     1     27.2116520     23  2.500                                                                 
     3     -1.3605826     23  2.500                                                                 
  local pseudopotential read in
  partial core-charges read in
  partial kinetic energy density read in
  atomic valenz-charges read in
  non local Contribution for L=           2  read in
    real space projection operators read in
  non local Contribution for L=           2  read in
    real space projection operators read in
  non local Contribution for L=           0  read in
    real space projection operators read in
  non local Contribution for L=           0  read in
    real space projection operators read in
  non local Contribution for L=           1  read in
    real space projection operators read in
  non local Contribution for L=           1  read in
    real space projection operators read in
    PAW grid and wavefunctions read in
 
   number of l-projection  operators is LMAX  =           6
   number of lm-projection operators is LMMAX =          18
 
 -----------------------------------------------------------------------------
|                                                                             |
|               ----> ADVICE to this user running VASP <----                  |
|                                                                             |
|     You have a (more or less) 'small supercell' and for smaller cells       |
|     it is recommended to use the reciprocal-space projection scheme!        |
|     The real-space optimization is not efficient for small cells and it     |
|     is also less accurate ...                                               |
|     Therefore, set LREAL=.FALSE. in the INCAR file.                         |
|                                                                             |
 -----------------------------------------------------------------------------

 Optimization of the real space projectors (new method)

 maximal supplied QI-value         = 15.12
 optimisation between [QCUT,QGAM] = [ 11.64, 23.28] = [ 37.95,151.78] Ry 
 Optimized for a Real-space Cutoff    1.49 Angstroem

   l    n(q)    QCUT    max X(q) W(low)/X(q) W(high)/X(q)  e(spline) 
   2      9    11.641    60.898    0.24E-03    0.10E-03    0.19E-06
   2      9    11.641    58.894    0.25E-03    0.10E-03    0.19E-06
   0     10    11.641   109.617    0.73E-04    0.33E-04    0.11E-06
   0     10    11.641    75.026    0.71E-04    0.32E-04    0.11E-06
   1     10    11.641    16.344    0.27E-04    0.97E-04    0.16E-06
   1     10    11.641    10.160    0.23E-04    0.77E-04    0.13E-06
  PAW_PBE Au 04Oct2007                  :
 energy of atom  1       EATOM= -926.0867
 kinetic energy error for atom=    0.0034 (will be added to EATOM!!)
 
 
 POSCAR: Au
  positions in direct lattice
  velocities in cartesian coordinates

 METAGGA = M06L                                        LMAXTAU =  6    LMIXTAU =  F

 exchange correlation table for  LEXCH =        8
   RHO(1)=    0.500       N(1)  =     2000
   RHO(2)=  100.500       N(2)  =     4000
 


--------------------------------------------------------------------------------------------------------


 ion  position               nearest neighbor table
   1  0.587  0.521  0.535-   7 2.61   2 2.61   6 2.73   8 2.74
   2  0.594  0.450  0.644-   8 2.60   1 2.61
   3  0.406  0.551  0.356-   6 2.60   5 2.61
   4  0.365  0.394  0.551-   8 2.60   5 2.61
   5  0.413  0.479  0.464-   4 2.61   3 2.61   8 2.74   6 2.74
   6  0.516  0.560  0.425-   7 2.60   3 2.60   1 2.73   5 2.74
   7  0.635  0.606  0.449-   6 2.60   1 2.61
   8  0.484  0.440  0.574-   2 2.60   4 2.60   5 2.74   1 2.74
 

IMPORTANT INFORMATION: All symmetrisations will be switched off!
NOSYMM: (Re-)initialisation of all symmetry stuff for point group C_1.


----------------------------------------------------------------------------------------

                                     Primitive cell                                     

  volume of cell :    8000.0000

  direct lattice vectors                    reciprocal lattice vectors
    20.000000000  0.000000000  0.000000000     0.050000000  0.000000000  0.000000000
     0.000000000 20.000000000  0.000000000     0.000000000  0.050000000  0.000000000
     0.000000000  0.000000000 20.000000000     0.000000000  0.000000000  0.050000000

  length of vectors
    20.000000000 20.000000000 20.000000000     0.050000000  0.050000000  0.050000000

  position of ions in fractional coordinates (direct lattice)
     0.587314935  0.521251269  0.535086162
     0.594007259  0.449839138  0.643821918
     0.405557416  0.551000013  0.356164294
     0.364833830  0.393996639  0.550915378
     0.412584551  0.478914525  0.464440067
     0.515554183  0.559973808  0.425327799
     0.635169049  0.605989959  0.448503784
     0.484296247  0.440300765  0.574297230

  ion indices of the primitive-cell ions
   primitive index   ion index
                 1           1
                 2           2
                 3           3
                 4           4
                 5           5
                 6           6
                 7           7
                 8           8

----------------------------------------------------------------------------------------

 
 
 KPOINTS: KPOINTS created by Atomic Simulation Env

Automatic generation of k-mesh.
 Grid dimensions read from file:
 generate k-points for:    1    1    1

 Generating k-lattice:

  Cartesian coordinates                     Fractional coordinates (reciprocal lattice)
     0.050000000  0.000000000  0.000000000     1.000000000  0.000000000  0.000000000
     0.000000000  0.050000000  0.000000000     0.000000000  1.000000000  0.000000000
     0.000000000  0.000000000  0.050000000     0.000000000  0.000000000  1.000000000

  Length of vectors
     0.050000000  0.050000000  0.050000000

  Shift w.r.t. Gamma in fractional coordinates (k-lattice)
     0.000000000  0.000000000  0.000000000

 
 Subroutine IBZKPT returns following result:
 ===========================================
 
 Found      1 irreducible k-points:
 
 Following reciprocal coordinates:
            Coordinates               Weight
  0.000000  0.000000  0.000000      1.000000
 
 Following cartesian coordinates:
            Coordinates               Weight
  0.000000  0.000000  0.000000      1.000000
 


--------------------------------------------------------------------------------------------------------




 Dimension of arrays:
   k-points           NKPTS =      1   k-points in BZ     NKDIM =      1   number of bands    NBANDS=     64
   number of dos      NEDOS =    301   number of ions     NIONS =      8
   non local maximal  LDIM  =      6   non local SUM 2l+1 LMDIM =     18
   total plane-waves  NPLWV = ******
   max r-space proj   IRMAX =   5885   max aug-charges    IRDMAX=  25995
   dimension x,y,z NGX =   150 NGY =  150 NGZ =  150
   dimension x,y,z NGXF=   300 NGYF=  300 NGZF=  300
   support grid    NGXF=   300 NGYF=  300 NGZF=  300
   ions per type =               8
   NGX,Y,Z   is equivalent  to a cutoff of  12.47, 12.47, 12.47 a.u.
   NGXF,Y,Z  is equivalent  to a cutoff of  24.94, 24.94, 24.94 a.u.

 SYSTEM =  MgO-rocksalt                            
 POSCAR =  Au                                      

 Startparameter for this run:
   NWRITE =      2    write-flag & timer
   PREC   = accura    normal or accurate (medium, high low for compatibility)
   ISTART =      0    job   : 0-new  1-cont  2-samecut
   ICHARG =      2    charge: 1-file 2-atom 10-const
   ISPIN  =      1    spin polarized calculation?
   LNONCOLLINEAR =      F non collinear calculations
   LSORBIT =      F    spin-orbit coupling
   INIWAV =      1    electr: 0-lowe 1-rand  2-diag
   LASPH  =      T    aspherical Exc in radial PAW
 Electronic Relaxation 1
   ENCUT  =  520.0 eV  38.22 Ry    6.18 a.u.  37.19 37.19 37.19*2*pi/ulx,y,z
   ENINI  =  520.0     initial cutoff
   ENAUG  =  356.7 eV  augmentation charge cutoff
   NELM   =  20000;   NELMIN=  8; NELMDL= -5     # of ELM steps 
   EDIFF  = 0.1E-03   stopping-criterion for ELM
   LREAL  =      T    real-space projection
   NLSPLINE    = F    spline interpolate recip. space projectors
   LCOMPAT=      F    compatible to vasp.4.4
   GGA_COMPAT  = T    GGA compatible to vasp.4.4-vasp.4.6
   LMAXPAW     = -100 max onsite density
   LMAXMIX     =    2 max onsite mixed and CHGCAR
   VOSKOWN=      0    Vosko Wilk Nusair interpolation
   ROPT   =   -0.00025
 Ionic relaxation
   EDIFFG = 0.1E-02   stopping-criterion for IOM
   NSW    =      0    number of steps for IOM
   NBLOCK =      1;   KBLOCK =      1    inner block; outer block 
   IBRION =     -1    ionic relax: 0-MD 1-quasi-New 2-CG
   NFREE  =      0    steps in history (QN), initial steepest desc. (CG)
   ISIF   =      2    stress and relaxation
   IWAVPR =     10    prediction:  0-non 1-charg 2-wave 3-comb
   ISYM   =      0    0-nonsym 1-usesym 2-fastsym
   LCORR  =      T    Harris-Foulkes like correction to forces

   POTIM  = 0.5000    time-step for ionic-motion
   TEIN   =    0.0    initial temperature
   TEBEG  =    0.0;   TEEND  =   0.0 temperature during run
   SMASS  =  -3.00    Nose mass-parameter (am)
   estimated Nose-frequenzy (Omega)   =  0.10E-29 period in steps = 0.13E+47 mass=  -0.914E-26a.u.
   SCALEE = 1.0000    scale energy and forces
   NPACO  =    256;   APACO  = 10.0  distance and # of slots for P.C.
   PSTRESS=    0.0 pullay stress

  Mass of Ions in am
   POMASS = 196.97
  Ionic Valenz
   ZVAL   =  11.00
  Atomic Wigner-Seitz radii
   RWIGS  =  -1.00
  virtual crystal weights 
   VCA    =   1.00
   NELECT =      88.0000    total number of electrons
   NUPDOWN=      -1.0000    fix difference up-down

 DOS related values:
   EMIN   =  10.00;   EMAX   =-10.00  energy-range for DOS
   EFERMI =   0.00;   METHOD = LEGACY      
   ISMEAR =     0;   SIGMA  =   0.05  broadening in eV -4-tet -1-fermi 0-gaus

 Electronic relaxation 2 (details)
   IALGO  =     58    algorithm
   LDIAG  =      T    sub-space diagonalisation (order eigenvalues)
   LSUBROT=      F    optimize rotation matrix (better conditioning)
   TURBO    =      0    0=normal 1=particle mesh
   IRESTART =      0    0=no restart 2=restart with 2 vectors
   NREBOOT  =      0    no. of reboots
   NMIN     =      0    reboot dimension
   EREF     =   0.00    reference energy to select bands
   IMIX   =      4    mixing-type and parameters
     AMIX     =   0.40;   BMIX     =  1.00
     AMIX_MAG =   1.60;   BMIX_MAG =  1.00
     AMIN     =   0.10
     WC   =   100.;   INIMIX=   1;  MIXPRE=   1;  MAXMIX= -45

 Intra band minimization:
   WEIMIN = 0.0000     energy-eigenvalue tresh-hold
   EBREAK =  0.39E-06  absolut break condition
   DEPER  =   0.30     relativ break condition  

   TIME   =   0.40     timestep for ELM

  volume/ion in A,a.u.               =    1000.00      6748.33
  Fermi-wavevector in a.u.,A,eV,Ry     =   0.364087  0.688026  1.803584  0.132560
  Thomas-Fermi vector in A             =   1.286639
 
 Write flags
   LWAVE        =      F    write WAVECAR
   LDOWNSAMPLE  =      F    k-point downsampling of WAVECAR
   LCHARG       =      F    write CHGCAR
   LVTOT        =      F    write LOCPOT, total local potential
   LVHAR        =      F    write LOCPOT, Hartree potential only
   LELF         =      F    write electronic localiz. function (ELF)
   LORBIT       =      0    0 simple, 1 ext, 2 COOP (PROOUT), +10 PAW based schemes


 Dipole corrections
   LMONO  =      F    monopole corrections only (constant potential shift)
   LDIPOL =      F    correct potential (dipole corrections)
   IDIPOL =      0    1-x, 2-y, 3-z, 4-all directions 
   EPSILON=  1.0000000 bulk dielectric constant

 Exchange correlation treatment:
   GGA     =    --    GGA type
   LEXCH   =     8    internal setting for exchange type
   LIBXC   =     F    Libxc                    
   VOSKOWN =     0    Vosko Wilk Nusair interpolation
   LHFCALC =     F    Hartree Fock is set to
   LHFONE  =     F    Hartree Fock one center treatment
   AEXX    =    0.0000 exact exchange contribution

 Linear response parameters
   LEPSILON=     F    determine dielectric tensor
   LRPA    =     F    only Hartree local field effects (RPA)
   LNABLA  =     F    use nabla operator in PAW spheres
   LVEL    =     F    velocity operator in full k-point grid
   CSHIFT  =0.1000    complex shift for real part using Kramers Kronig
   OMEGAMAX=  -1.0    maximum frequency
   DEG_THRESHOLD= 0.2000000E-02 threshold for treating states as degnerate
   RTIME   =   -0.100 relaxation time in fs
  (WPLASMAI=    0.000 imaginary part of plasma frequency in eV, 0.658/RTIME)
   DFIELD  = 0.0000000 0.0000000 0.0000000 field for delta impulse in time
 
  Optional k-point grid parameters
   LKPOINTS_OPT  =     F    use optional k-point grid
   KPOINTS_OPT_MODE=     1    mode for optional k-point grid
 
 Orbital magnetization related:
   ORBITALMAG=     F  switch on orbital magnetization
   LCHIMAG   =     F  perturbation theory with respect to B field
   DQ        =  0.001000  dq finite difference perturbation B field
   LLRAUG    =     F  two centre corrections for induced B field
   LBONE     =     F  B-component reconstruction in AE one-centre
   LVGVCALC  =     T  calculate vGv susceptibility
   LVGVAPPL  =     F  apply vGv susceptibility instead of pGv for G=0

 Random number generation:
   RANDOM_GENERATOR = DEFAULT
   PCG_SEED         = not used


--------------------------------------------------------------------------------------------------------


 Static calculation
 charge density and potential will be updated during run
 non-spin polarized calculation
 Conjugate gradient for all bands (Freysoldt, et al. PRB 79, 241103 (2009))
 preconditioned conjugated gradient                                        
 perform sub-space diagonalisation
    before iterative eigenvector-optimisation
 modified Broyden-mixing scheme, WC =      100.0
 initial mixing is a Kerker type mixing with AMIX =  0.4000 and BMIX =      1.0000
 Hartree-type preconditioning will be used
 using additional bands           20
 real space projection scheme for non local part
 use partial core corrections
 no Harris-corrections to forces 
 use gradient corrections 
 use of overlap-Matrix (Vanderbilt PP)
 Gauss-broadening in eV      SIGMA  =   0.05


--------------------------------------------------------------------------------------------------------


  energy-cutoff  :      520.00
  volume of cell :     8000.00
      direct lattice vectors                 reciprocal lattice vectors
    20.000000000  0.000000000  0.000000000     0.050000000  0.000000000  0.000000000
     0.000000000 20.000000000  0.000000000     0.000000000  0.050000000  0.000000000
     0.000000000  0.000000000 20.000000000     0.000000000  0.000000000  0.050000000

  length of vectors
    20.000000000 20.000000000 20.000000000     0.050000000  0.050000000  0.050000000


 
 k-points in units of 2pi/SCALE and weight: KPOINTS created by Atomic Simulation Env
   0.00000000  0.00000000  0.00000000       1.000
 
 k-points in reciprocal lattice and weights: KPOINTS created by Atomic Simulation Env
   0.00000000  0.00000000  0.00000000       1.000
 
 position of ions in fractional coordinates (direct lattice) 
   0.58731494  0.52125127  0.53508616
   0.59400726  0.44983914  0.64382192
   0.40555742  0.55100001  0.35616429
   0.36483383  0.39399664  0.55091538
   0.41258455  0.47891453  0.46444007
   0.51555418  0.55997381  0.42532780
   0.63516905  0.60598996  0.44850378
   0.48429625  0.44030077  0.57429723
 
 position of ions in cartesian coordinates  (Angst):
  11.74629870 10.42502538 10.70172324
  11.88014518  8.99678275 12.87643836
   8.11114833 11.02000025  7.12328589
   7.29667661  7.87993278 11.01830756
   8.25169102  9.57829051  9.28880133
  10.31108365 11.19947616  8.50655598
  12.70338098 12.11979918  8.97007569
   9.68592494  8.80601531 11.48594460
 


--------------------------------------------------------------------------------------------------------


 k-point   1 :   0.0000 0.0000 0.0000  plane waves:  215503

 maximum and minimum number of plane-waves per node :     13480    13461

 maximum number of plane-waves:    215503
 maximum index in each direction: 
   IXMAX=   37   IYMAX=   37   IZMAX=   37
   IXMIN=  -37   IYMIN=  -37   IZMIN=  -37


 real space projection operators:
  total allocation   :       6366.09 KBytes
  max/ min on nodes  :        410.06        374.20


 parallel 3D FFT for wavefunctions:
    minimum data exchange during FFTs selected (reduces bandwidth)
 parallel 3D FFT for charge:
    minimum data exchange during FFTs selected (reduces bandwidth)


 total amount of memory used by VASP MPI-rank0    72393. kBytes
=======================================================================

   base      :      30000. kBytes
   nonlr-proj:       1298. kBytes
   fftplans  :      12137. kBytes
   grid      :      26351. kBytes
   one-center:         15. kBytes
   wavefun   :       2592. kBytes
 
     INWAV:  cpu time      0.0005: real time      0.0008
 Broyden mixing: mesh for mixing (old mesh)
   NGX = 75   NGY = 75   NGZ = 75
  (NGX  =300   NGY  =300   NGZ  =300)
  gives a total of 421875 points

 initial charge density was supplied:
 charge density of overlapping atoms calculated
 number of electron      88.0000000 magnetization 
 keeping initial charge density in first step


--------------------------------------------------------------------------------------------------------


 Maximum index for non-local projection operator          381
 Maximum index for augmentation-charges            0 (set IRDMAX)


--------------------------------------------------------------------------------------------------------


 First call to EWALD:  gamma=   0.089
 Maximum number of real-space cells 3x 3x 3
 Maximum number of reciprocal cells 3x 3x 3

    FEWALD:  cpu time      0.0127: real time      0.0136


--------------------------------------- Ionic step        1  -------------------------------------------




--------------------------------------- Iteration      1(   1)  ---------------------------------------


    POTLOK:  cpu time      0.6852: real time      0.6909
    SETDIJ:  cpu time      4.1618: real time      4.1656
    TRIAL :  cpu time      2.4446: real time      2.5354
    CORREC:  cpu time      0.0073: real time      0.0073
    --------------------------------------------
      LOOP:  cpu time      7.3036: real time      7.4050

 eigenvalue-minimisations  :   256
 total energy-change (2. order) :-0.2123809E+11  (-0.1765103E+11)
 number of electron      88.0000000 magnetization 
 augmentation part       88.0000000 magnetization 

 Free energy of the ion-electron system (eV)
  ---------------------------------------------------
  alpha Z        PSCENC =         9.31836840
  Ewald energy   TEWEN  =      5700.99075705
  -Hartree energ DENC   =    -12800.92555211
  -exchange      EXHF   =         0.00000000
  -V(xc)+E(xc)   XCENC  =     -2395.62079686
  PAW double counting   =      6892.66296676    -7095.29799587
  entropy T*S    EENTRO =         0.00000000
  eigenvalues    EBANDS = ******************
  atomic energy  EATOM  =      7408.66657912
  ---------------------------------------------------
  free energy    TOTEN  = ****************** eV

  energy without entropy =******************  energy(sigma->0) =******************


--------------------------------------------------------------------------------------------------------




--------------------------------------- Iteration      1(   2)  ---------------------------------------


    TRIAL :  cpu time      1.5076: real time      1.5079
    CORREC:  cpu time      0.0005: real time      0.0005
    --------------------------------------------
      LOOP:  cpu time      1.5106: real time      1.5144

 eigenvalue-minimisations  :   144
 total energy-change (2. order) :-0.1474851E+11  (-0.1462852E+11)
 number of electron      88.0000000 magnetization 
 augmentation part       88.0000000 magnetization 

 Free energy of the ion-electron system (eV)
  ---------------------------------------------------
  alpha Z        PSCENC =         9.31836840
  Ewald energy   TEWEN  =      5700.99075705
  -Hartree energ DENC   =    -12800.92555211
  -exchange      EXHF   =         0.00000000
  -V(xc)+E(xc)   XCENC  =     -2395.62079686
  PAW double counting   =      6892.66296676    -7095.29799587
  entropy T*S    EENTRO =         0.00000000
  eigenvalues    EBANDS = ******************
  atomic energy  EATOM  =      7408.66657912
  ---------------------------------------------------
  free energy    TOTEN  = ****************** eV

  energy without entropy =******************  energy(sigma->0) =******************


--------------------------------------------------------------------------------------------------------




--------------------------------------- Iteration      1(   3)  ---------------------------------------


    TRIAL :  cpu time      2.0980: real time      2.1021
    CORREC:  cpu time      0.0005: real time      0.0005
    --------------------------------------------
      LOOP:  cpu time      2.1008: real time      2.1085

 eigenvalue-minimisations  :   240
 total energy-change (2. order) :-0.1492050E+10  (-0.1418694E+10)
 number of electron      88.0000000 magnetization 
 augmentation part       88.0000000 magnetization 

 Free energy of the ion-electron system (eV)
  ---------------------------------------------------
  alpha Z        PSCENC =         9.31836840
  Ewald energy   TEWEN  =      5700.99075705
  -Hartree energ DENC   =    -12800.92555211
  -exchange      EXHF   =         0.00000000
  -V(xc)+E(xc)   XCENC  =     -2395.62079686
  PAW double counting   =      6892.66296676    -7095.29799587
  entropy T*S    EENTRO =         0.00000000
  eigenvalues    EBANDS = ******************
  atomic energy  EATOM  =      7408.66657912
  ---------------------------------------------------
  free energy    TOTEN  = ****************** eV

  energy without entropy =******************  energy(sigma->0) =******************


--------------------------------------------------------------------------------------------------------




--------------------------------------- Iteration      1(   4)  ---------------------------------------


    TRIAL :  cpu time      2.0926: real time      2.0953
    CORREC:  cpu time      0.0005: real time      0.0005
    --------------------------------------------
      LOOP:  cpu time      2.0948: real time      2.1019

 eigenvalue-minimisations  :   240
 total energy-change (2. order) :-0.6898641E+08  (-0.6611373E+08)
 number of electron      88.0000000 magnetization 
 augmentation part       88.0000000 magnetization 

 Free energy of the ion-electron system (eV)
  ---------------------------------------------------
  alpha Z        PSCENC =         9.31836840
  Ewald energy   TEWEN  =      5700.99075705
  -Hartree energ DENC   =    -12800.92555211
  -exchange      EXHF   =         0.00000000
  -V(xc)+E(xc)   XCENC  =     -2395.62079686
  PAW double counting   =      6892.66296676    -7095.29799587
  entropy T*S    EENTRO =         0.00000000
  eigenvalues    EBANDS = ******************
  atomic energy  EATOM  =      7408.66657912
  ---------------------------------------------------
  free energy    TOTEN  = ****************** eV

  energy without entropy =******************  energy(sigma->0) =******************


--------------------------------------------------------------------------------------------------------




--------------------------------------- Iteration      1(   5)  ---------------------------------------


    TRIAL :  cpu time      1.6971: real time      1.6968
    CORREC:  cpu time      0.0004: real time      0.0004
    CHARGE:  cpu time      0.2687: real time      0.2687
    --------------------------------------------
      LOOP:  cpu time      1.9687: real time      1.9724

 eigenvalue-minimisations  :   176
 total energy-change (2. order) :-0.3333435E+07  (-0.3254061E+07)
 number of electron      88.0000000 magnetization 
 augmentation part        0.0000767 magnetization 

 Free energy of the ion-electron system (eV)
  ---------------------------------------------------
  alpha Z        PSCENC =         9.31836840
  Ewald energy   TEWEN  =      5700.99075705
  -Hartree energ DENC   =    -12800.92555211
  -exchange      EXHF   =         0.00000000
  -V(xc)+E(xc)   XCENC  =     -2395.62079686
  PAW double counting   =      6892.66296676    -7095.29799587
  entropy T*S    EENTRO =         0.00000000
  eigenvalues    EBANDS = ******************
  atomic energy  EATOM  =      7408.66657912
  ---------------------------------------------------
  free energy    TOTEN  = ****************** eV

  energy without entropy =******************  energy(sigma->0) =******************


--------------------------------------------------------------------------------------------------------




--------------------------------------- Iteration      1(   6)  ---------------------------------------


    POTLOK:  cpu time      2.3333: real time      2.3344
    SETDIJ:  cpu time      4.3329: real time      4.3366
    TRIAL :  cpu time      1.3441: real time      1.3458
    CORREC:  cpu time      7.3036: real time      7.3091
    CHARGE:  cpu time      0.2197: real time      0.2195
    --------------------------------------------
      LOOP:  cpu time     15.5358: real time     15.5516

 eigenvalue-minimisations  :     0
 total energy-change (2. order) : 0.3755102E+11  ( 0.2159054E+03)
 number of electron      88.0000000 magnetization 
 augmentation part        0.0049411 magnetization 

 Free energy of the ion-electron system (eV)
  ---------------------------------------------------
  alpha Z        PSCENC =         9.31836840
  Ewald energy   TEWEN  =      5700.99075705
  -Hartree energ DENC   =    -23178.09342032
  -exchange      EXHF   =         0.00000000
  -V(xc)+E(xc)   XCENC  =       499.11574586
  PAW double counting   =       143.71631001     -343.35799438
  entropy T*S    EENTRO =         0.00000000
  eigenvalues    EBANDS =     60484.59754863
  atomic energy  EATOM  =      7408.66657912
  ---------------------------------------------------
  free energy    TOTEN  =     50724.95389437 eV

  energy without entropy =    50724.95389437  energy(sigma->0) =    50724.95389437


--------------------------------------------------------------------------------------------------------




--------------------------------------- Iteration      1(   7)  ---------------------------------------


    POTLOK:  cpu time      2.3285: real time      2.3306
    SETDIJ:  cpu time      4.5090: real time      4.5129
    TRIAL :  cpu time      1.2837: real time      1.2843
    CORREC:  cpu time      7.4043: real time      7.4106
    CHARGE:  cpu time      0.2195: real time      0.2205
    --------------------------------------------
      LOOP:  cpu time     15.7475: real time     15.7658

 eigenvalue-minimisations  :     0
 total energy-change (2. order) :-0.2197248E+04  (-0.2357549E+05)
 number of electron      88.0000000 magnetization 
 augmentation part        0.1048219 magnetization 

 Free energy of the ion-electron system (eV)
  ---------------------------------------------------
  alpha Z        PSCENC =         9.31836840
  Ewald energy   TEWEN  =      5700.99075705
  -Hartree energ DENC   =    -22628.65208570
  -exchange      EXHF   =         0.00000000
  -V(xc)+E(xc)   XCENC  =       502.08067062
  PAW double counting   =       143.92156417     -343.56340302
  entropy T*S    EENTRO =         0.00000000
  eigenvalues    EBANDS =     57734.94295380
  atomic energy  EATOM  =      7408.66657912
  ---------------------------------------------------
  free energy    TOTEN  =     48527.70540445 eV

  energy without entropy =    48527.70540445  energy(sigma->0) =    48527.70540445


--------------------------------------------------------------------------------------------------------




--------------------------------------- Iteration      1(   8)  ---------------------------------------


    POTLOK:  cpu time      2.3131: real time      2.3146
    SETDIJ:  cpu time      4.4634: real time      4.4672
    TRIAL :  cpu time      1.2669: real time      1.2686
    CORREC:  cpu time      7.3675: real time      7.3735
    CHARGE:  cpu time      0.2201: real time      0.2200
    --------------------------------------------
      LOOP:  cpu time     15.6337: real time     15.6512

 eigenvalue-minimisations  :     0
 total energy-change (2. order) :-0.2583190E+05  (-0.4041239E+05)
 number of electron      88.0000000 magnetization 
 augmentation part       -0.1492590 magnetization 

 Free energy of the ion-electron system (eV)
  ---------------------------------------------------
  alpha Z        PSCENC =         9.31836840
  Ewald energy   TEWEN  =      5700.99075705
  -Hartree energ DENC   =    -12814.09869593
  -exchange      EXHF   =         0.00000000
  -V(xc)+E(xc)   XCENC  =       139.33530884
  PAW double counting   =       734.16679353     -935.63697309
  entropy T*S    EENTRO =         0.00000000
  eigenvalues    EBANDS =     22453.06335841
  atomic energy  EATOM  =      7408.66657912
  ---------------------------------------------------
  free energy    TOTEN  =     22695.80549635 eV

  energy without entropy =    22695.80549635  energy(sigma->0) =    22695.80549635


--------------------------------------------------------------------------------------------------------




--------------------------------------- Iteration      1(   9)  ---------------------------------------


    POTLOK:  cpu time      2.3126: real time      2.3150
    SETDIJ:  cpu time      4.4565: real time      4.4596
    TRIAL :  cpu time      1.2673: real time      1.2691
    CORREC:  cpu time      7.3720: real time      7.3781
    CHARGE:  cpu time      0.2197: real time      0.2197
    --------------------------------------------
      LOOP:  cpu time     15.6309: real time     15.6487

 eigenvalue-minimisations  :     0
 total energy-change (2. order) :-0.1297812E+05  (-0.5075238E+04)
 number of electron      88.0000000 magnetization 
 augmentation part        0.1615001 magnetization 

 Free energy of the ion-electron system (eV)
  ---------------------------------------------------
  alpha Z        PSCENC =         9.31836840
  Ewald energy   TEWEN  =      5700.99075705
  -Hartree energ DENC   =     -6040.14824115
  -exchange      EXHF   =         0.00000000
  -V(xc)+E(xc)   XCENC  =       -10.00251389
  PAW double counting   =      1307.03393729    -1510.48387322
  entropy T*S    EENTRO =         0.00000000
  eigenvalues    EBANDS =      2852.30609561
  atomic energy  EATOM  =      7408.66657912
  ---------------------------------------------------
  free energy    TOTEN  =      9717.68110922 eV

  energy without entropy =     9717.68110922  energy(sigma->0) =     9717.68110922


--------------------------------------------------------------------------------------------------------




--------------------------------------- Iteration      1(  10)  ---------------------------------------


    POTLOK:  cpu time      2.3105: real time      2.3126
    SETDIJ:  cpu time      4.4600: real time      4.4639
    TRIAL :  cpu time      1.2640: real time      1.2648
    CORREC:  cpu time      7.3903: real time      7.3980
    CHARGE:  cpu time      0.2190: real time      0.2200
    --------------------------------------------
      LOOP:  cpu time     15.6464: real time     15.6668

 eigenvalue-minimisations  :     0
 total energy-change (2. order) : 0.4500259E+04  (-0.1850934E+05)
 number of electron      88.0000000 magnetization 
 augmentation part       -0.0688136 magnetization 

 Free energy of the ion-electron system (eV)
  ---------------------------------------------------
  alpha Z        PSCENC =         9.31836840
  Ewald energy   TEWEN  =      5700.99075705
  -Hartree energ DENC   =     -7463.22979895
  -exchange      EXHF   =         0.00000000
  -V(xc)+E(xc)   XCENC  =        -1.10828905
  PAW double counting   =       760.03706486     -962.09811959
  entropy T*S    EENTRO =         0.00000000
  eigenvalues    EBANDS =      8765.36398198
  atomic energy  EATOM  =      7408.66657912
  ---------------------------------------------------
  free energy    TOTEN  =     14217.94054382 eV

  energy without entropy =    14217.94054382  energy(sigma->0) =    14217.94054382


--------------------------------------------------------------------------------------------------------




--------------------------------------- Iteration      1(  11)  ---------------------------------------


    POTLOK:  cpu time      2.3235: real time      2.3247
    SETDIJ:  cpu time      4.4977: real time      4.5017
    TRIAL :  cpu time      1.2730: real time      1.2747
    CORREC:  cpu time      7.3903: real time      7.3962
    CHARGE:  cpu time      0.2189: real time      0.2189
    --------------------------------------------
      LOOP:  cpu time     15.7055: real time     15.7225

 eigenvalue-minimisations  :     0
 total energy-change (2. order) : 0.9356594E+04  (-0.2649332E+05)
 number of electron      88.0000000 magnetization 
 augmentation part        0.1001726 magnetization 

 Free energy of the ion-electron system (eV)
  ---------------------------------------------------
  alpha Z        PSCENC =         9.31836840
  Ewald energy   TEWEN  =      5700.99075705
  -Hartree energ DENC   =    -10872.13972337
  -exchange      EXHF   =         0.00000000
  -V(xc)+E(xc)   XCENC  =        31.17220260
  PAW double counting   =       323.95387852     -524.09948760
  entropy T*S    EENTRO =         0.00000000
  eigenvalues    EBANDS =     21496.67173936
  atomic energy  EATOM  =      7408.66657912
  ---------------------------------------------------
  free energy    TOTEN  =     23574.53431408 eV

  energy without entropy =    23574.53431408  energy(sigma->0) =    23574.53431408


--------------------------------------------------------------------------------------------------------




--------------------------------------- Iteration      1(  12)  ---------------------------------------


    POTLOK:  cpu time      2.3103: real time      2.3127
    SETDIJ:  cpu time      4.4603: real time      4.4641
    TRIAL :  cpu time      1.2730: real time      1.2738
    CORREC:  cpu time      7.3745: real time      7.3807
    CHARGE:  cpu time      0.2175: real time      0.2183
    --------------------------------------------
      LOOP:  cpu time     15.6381: real time     15.6563

 eigenvalue-minimisations  :     0
 total energy-change (2. order) : 0.2245011E+04  (-0.1200104E+05)
 number of electron      88.0000000 magnetization 
 augmentation part        0.1098242 magnetization 

 Free energy of the ion-electron system (eV)
  ---------------------------------------------------
  alpha Z        PSCENC =         9.31836840
  Ewald energy   TEWEN  =      5700.99075705
  -Hartree energ DENC   =    -10540.10669738
  -exchange      EXHF   =         0.00000000
  -V(xc)+E(xc)   XCENC  =        32.99896401
  PAW double counting   =       387.80549322     -588.60372622
  entropy T*S    EENTRO =         0.00000000
  eigenvalues    EBANDS =     23408.47581788
  atomic energy  EATOM  =      7408.66657912
  ---------------------------------------------------
  free energy    TOTEN  =     25819.54555609 eV

  energy without entropy =    25819.54555609  energy(sigma->0) =    25819.54555609


--------------------------------------------------------------------------------------------------------




--------------------------------------- Iteration      1(  13)  ---------------------------------------


    POTLOK:  cpu time      2.3110: real time      2.3124
    SETDIJ:  cpu time      4.4524: real time      4.4564
    TRIAL :  cpu time      1.2729: real time      1.2738
    CORREC:  cpu time      7.3760: real time      7.3829
    CHARGE:  cpu time      0.2173: real time      0.2175
    --------------------------------------------
      LOOP:  cpu time     15.6357: real time     15.6531

 eigenvalue-minimisations  :     0
 total energy-change (2. order) : 0.4475945E+04  (-0.9960509E+04)
 number of electron      88.0000000 magnetization 
 augmentation part        0.0678084 magnetization 

 Free energy of the ion-electron system (eV)
  ---------------------------------------------------
  alpha Z        PSCENC =         9.31836840
  Ewald energy   TEWEN  =      5700.99075705
  -Hartree energ DENC   =    -12156.53294037
  -exchange      EXHF   =         0.00000000
  -V(xc)+E(xc)   XCENC  =        89.57363746
  PAW double counting   =       264.25055056     -464.39683323
  entropy T*S    EENTRO =         0.00000000
  eigenvalues    EBANDS =     29443.61994462
  atomic energy  EATOM  =      7408.66657912
  ---------------------------------------------------
  free energy    TOTEN  =     30295.49006361 eV

  energy without entropy =    30295.49006361  energy(sigma->0) =    30295.49006361


--------------------------------------------------------------------------------------------------------




--------------------------------------- Iteration      1(  14)  ---------------------------------------


    POTLOK:  cpu time      2.3115: real time      2.3137
    SETDIJ:  cpu time      4.4542: real time      4.4572
    TRIAL :  cpu time      1.2704: real time      1.2723
    CORREC:  cpu time      7.4106: real time      7.4166
    CHARGE:  cpu time      0.2214: real time      0.2213
    --------------------------------------------
      LOOP:  cpu time     15.6706: real time     15.6875

 eigenvalue-minimisations  :     0
 total energy-change (2. order) : 0.2734782E+04  (-0.9525521E+04)
 number of electron      88.0000000 magnetization 
 augmentation part        0.0607870 magnetization 

 Free energy of the ion-electron system (eV)
  ---------------------------------------------------
  alpha Z        PSCENC =         9.31836840
  Ewald energy   TEWEN  =      5700.99075705
  -Hartree energ DENC   =    -13133.08506624
  -exchange      EXHF   =         0.00000000
  -V(xc)+E(xc)   XCENC  =       131.95712476
  PAW double counting   =       191.32123155     -391.26131173
  entropy T*S    EENTRO =         0.00000000
  eigenvalues    EBANDS =     33112.36391335
  atomic energy  EATOM  =      7408.66657912
  ---------------------------------------------------
  free energy    TOTEN  =     33030.27159626 eV

  energy without entropy =    33030.27159626  energy(sigma->0) =    33030.27159626


--------------------------------------------------------------------------------------------------------




--------------------------------------- Iteration      1(  15)  ---------------------------------------


    POTLOK:  cpu time      2.3156: real time      2.3181
    SETDIJ:  cpu time      4.4516: real time      4.4555
    TRIAL :  cpu time      1.2665: real time      1.2673
    CORREC:  cpu time      7.3912: real time      7.3975
    CHARGE:  cpu time      0.2183: real time      0.2191
    --------------------------------------------
      LOOP:  cpu time     15.6462: real time     15.6732

 eigenvalue-minimisations  :     0
 total energy-change (2. order) : 0.2616445E+04  (-0.7245744E+04)
 number of electron      88.0000000 magnetization 
 augmentation part        0.0376638 magnetization 

 Free energy of the ion-electron system (eV)
  ---------------------------------------------------
  alpha Z        PSCENC =         9.31836840
  Ewald energy   TEWEN  =      5700.99075705
  -Hartree energ DENC   =    -14195.09369957
  -exchange      EXHF   =         0.00000000
  -V(xc)+E(xc)   XCENC  =       178.65217703
  PAW double counting   =       165.61070755     -365.39192615
  entropy T*S    EENTRO =         0.00000000
  eigenvalues    EBANDS =     36743.96394238
  atomic energy  EATOM  =      7408.66657912
  ---------------------------------------------------
  free energy    TOTEN  =     35646.71690581 eV

  energy without entropy =    35646.71690581  energy(sigma->0) =    35646.71690581


--------------------------------------------------------------------------------------------------------




--------------------------------------- Iteration      1(  16)  ---------------------------------------


    POTLOK:  cpu time      2.3136: real time      2.3150
    SETDIJ:  cpu time      4.4620: real time      4.4659
    TRIAL :  cpu time      1.2608: real time      1.2626
    CORREC:  cpu time      7.3808: real time      7.3869
    CHARGE:  cpu time      0.2186: real time      0.2187
    --------------------------------------------
      LOOP:  cpu time     15.6379: real time     15.6552

 eigenvalue-minimisations  :     0
 total energy-change (2. order) : 0.1701732E+04  (-0.6542015E+04)
 number of electron      88.0000000 magnetization 
 augmentation part        0.0216001 magnetization 

 Free energy of the ion-electron system (eV)
  ---------------------------------------------------
  alpha Z        PSCENC =         9.31836840
  Ewald energy   TEWEN  =      5700.99075705
  -Hartree energ DENC   =    -14800.27436301
  -exchange      EXHF   =         0.00000000
  -V(xc)+E(xc)   XCENC  =       209.19315289
  PAW double counting   =       154.48930489     -354.17990192
  entropy T*S    EENTRO =         0.00000000
  eigenvalues    EBANDS =     39020.24500653
  atomic energy  EATOM  =      7408.66657912
  ---------------------------------------------------
  free energy    TOTEN  =     37348.44890395 eV

  energy without entropy =    37348.44890395  energy(sigma->0) =    37348.44890395


--------------------------------------------------------------------------------------------------------




--------------------------------------- Iteration      1(  17)  ---------------------------------------


    POTLOK:  cpu time      2.3117: real time      2.3137
    SETDIJ:  cpu time      4.4621: real time      4.4661
    TRIAL :  cpu time      1.2627: real time      1.2637
    CORREC:  cpu time      7.4067: real time      7.4124
    CHARGE:  cpu time      0.2197: real time      0.2205
    --------------------------------------------
      LOOP:  cpu time     15.6657: real time     15.6840

 eigenvalue-minimisations  :     0
 total energy-change (2. order) : 0.2080690E+04  (-0.5060951E+04)
 number of electron      88.0000000 magnetization 
 augmentation part       -0.1218941 magnetization 

 Free energy of the ion-electron system (eV)
  ---------------------------------------------------
  alpha Z        PSCENC =         9.31836840
  Ewald energy   TEWEN  =      5700.99075705
  -Hartree energ DENC   =    -15651.69698584
  -exchange      EXHF   =         0.00000000
  -V(xc)+E(xc)   XCENC  =       242.78613336
  PAW double counting   =       148.73843240     -348.39322499
  entropy T*S    EENTRO =         0.00000000
  eigenvalues    EBANDS =     41918.72931690
  atomic energy  EATOM  =      7408.66657912
  ---------------------------------------------------
  free energy    TOTEN  =     39429.13937641 eV

  energy without entropy =    39429.13937641  energy(sigma->0) =    39429.13937641


--------------------------------------------------------------------------------------------------------




--------------------------------------- Iteration      1(  18)  ---------------------------------------


    POTLOK:  cpu time      2.3131: real time      2.3146
    SETDIJ:  cpu time      4.4536: real time      4.4575
    TRIAL :  cpu time      1.2731: real time      1.2736
    CORREC:  cpu time      7.4374: real time      7.4442
    CHARGE:  cpu time      0.2194: real time      0.2194
    --------------------------------------------
      LOOP:  cpu time     15.7002: real time     15.7167

 eigenvalue-minimisations  :     0
 total energy-change (2. order) :-0.1135664E+05  (-0.1681047E+05)
 number of electron      88.0000000 magnetization 
 augmentation part       -0.5755917 magnetization 

 Free energy of the ion-electron system (eV)
  ---------------------------------------------------
  alpha Z        PSCENC =         9.31836840
  Ewald energy   TEWEN  =      5700.99075705
  -Hartree energ DENC   =    -10205.82795290
  -exchange      EXHF   =         0.00000000
  -V(xc)+E(xc)   XCENC  =        20.88298245
  PAW double counting   =       255.24750981     -455.24955402
  entropy T*S    EENTRO =         0.00000000
  eigenvalues    EBANDS =     25338.47094523
  atomic energy  EATOM  =      7408.66657912
  ---------------------------------------------------
  free energy    TOTEN  =     28072.49963514 eV

  energy without entropy =    28072.49963514  energy(sigma->0) =    28072.49963514


--------------------------------------------------------------------------------------------------------




--------------------------------------- Iteration      1(  19)  ---------------------------------------


    POTLOK:  cpu time      2.3124: real time      2.3146
    SETDIJ:  cpu time      4.4677: real time      4.4714
    TRIAL :  cpu time      1.2683: real time      1.2690
    CORREC:  cpu time      7.3850: real time      7.3909
    CHARGE:  cpu time      0.2212: real time      0.2212
    --------------------------------------------
      LOOP:  cpu time     15.6570: real time     15.6742

 eigenvalue-minimisations  :     0
 total energy-change (2. order) :-0.1700207E+05  (-0.5063349E+04)
 number of electron      88.0000000 magnetization 
 augmentation part       -1.1020958 magnetization 

 Free energy of the ion-electron system (eV)
  ---------------------------------------------------
  alpha Z        PSCENC =         9.31836840
  Ewald energy   TEWEN  =      5700.99075705
  -Hartree energ DENC   =     -4070.87405254
  -exchange      EXHF   =         0.00000000
  -V(xc)+E(xc)   XCENC  =       -96.55040062
  PAW double counting   =       998.71772413    -1200.09086147
  entropy T*S    EENTRO =         0.00000000
  eigenvalues    EBANDS =      2320.24865494
  atomic energy  EATOM  =      7408.66657912
  ---------------------------------------------------
  free energy    TOTEN  =     11070.42676901 eV

  energy without entropy =    11070.42676901  energy(sigma->0) =    11070.42676901


--------------------------------------------------------------------------------------------------------




--------------------------------------- Iteration      1(  20)  ---------------------------------------


    POTLOK:  cpu time      2.3139: real time      2.3161
    SETDIJ:  cpu time      4.4630: real time      4.4668
    TRIAL :  cpu time      1.2672: real time      1.2680
    CORREC:  cpu time      7.3653: real time      7.3723
    CHARGE:  cpu time      0.2181: real time      0.2181
    --------------------------------------------
      LOOP:  cpu time     15.6362: real time     15.6542

 eigenvalue-minimisations  :     0
 total energy-change (2. order) :-0.5169037E+04  (-0.1820150E+04)
 number of electron      88.0000000 magnetization 
 augmentation part       -1.3448390 magnetization 

 Free energy of the ion-electron system (eV)
  ---------------------------------------------------
  alpha Z        PSCENC =         9.31836840
  Ewald energy   TEWEN  =      5700.99075705
  -Hartree energ DENC   =     -3839.90572113
  -exchange      EXHF   =         0.00000000
  -V(xc)+E(xc)   XCENC  =       -43.70801688
  PAW double counting   =      1977.26298424    -2187.52320325
  entropy T*S    EENTRO =         0.00000000
  eigenvalues    EBANDS =     -3123.71186593
  atomic energy  EATOM  =      7408.66657912
  ---------------------------------------------------
  free energy    TOTEN  =      5901.38988161 eV

  energy without entropy =     5901.38988161  energy(sigma->0) =     5901.38988161


--------------------------------------------------------------------------------------------------------




--------------------------------------- Iteration      1(  21)  ---------------------------------------


    POTLOK:  cpu time      2.3097: real time      2.3113
    SETDIJ:  cpu time      4.4367: real time      4.4405
    TRIAL :  cpu time      1.2721: real time      1.2737
    CORREC:  cpu time      7.3582: real time      7.3644
    CHARGE:  cpu time      0.2205: real time      0.2205
    --------------------------------------------
      LOOP:  cpu time     15.6005: real time     15.6174

 eigenvalue-minimisations  :     0
 total energy-change (2. order) :-0.2004266E+04  (-0.1149507E+04)
 number of electron      88.0000000 magnetization 
 augmentation part       -0.5237130 magnetization 

 Free energy of the ion-electron system (eV)
  ---------------------------------------------------
  alpha Z        PSCENC =         9.31836840
  Ewald energy   TEWEN  =      5700.99075705
  -Hartree energ DENC   =     -5200.74750904
  -exchange      EXHF   =         0.00000000
  -V(xc)+E(xc)   XCENC  =         0.22903318
  PAW double counting   =      2891.02602744    -3114.69498431
  entropy T*S    EENTRO =         0.00000000
  eigenvalues    EBANDS =     -3797.66426818
  atomic energy  EATOM  =      7408.66657912
  ---------------------------------------------------
  free energy    TOTEN  =      3897.12400366 eV

  energy without entropy =     3897.12400366  energy(sigma->0) =     3897.12400366


--------------------------------------------------------------------------------------------------------




--------------------------------------- Iteration      1(  22)  ---------------------------------------


    POTLOK:  cpu time      2.3207: real time      2.3229
    SETDIJ:  cpu time      4.4522: real time      4.4694
    TRIAL :  cpu time      1.2795: real time      1.2802
    CORREC:  cpu time      7.4511: real time      7.4568
    CHARGE:  cpu time      0.2209: real time      0.2216
    --------------------------------------------
      LOOP:  cpu time     15.7288: real time     15.7596

 eigenvalue-minimisations  :     0
 total energy-change (2. order) :-0.1285184E+04  (-0.8101765E+03)
 number of electron      88.0000000 magnetization 
 augmentation part        2.0277078 magnetization 

 Free energy of the ion-electron system (eV)
  ---------------------------------------------------
  alpha Z        PSCENC =         9.31836840
  Ewald energy   TEWEN  =      5700.99075705
  -Hartree energ DENC   =     -6821.74588845
  -exchange      EXHF   =         0.00000000
  -V(xc)+E(xc)   XCENC  =        31.54568405
  PAW double counting   =      4242.57570802    -4482.29846187
  entropy T*S    EENTRO =         0.00000000
  eigenvalues    EBANDS =     -3477.11322815
  atomic energy  EATOM  =      7408.66657912
  ---------------------------------------------------
  free energy    TOTEN  =      2611.93951818 eV

  energy without entropy =     2611.93951818  energy(sigma->0) =     2611.93951818


--------------------------------------------------------------------------------------------------------




--------------------------------------- Iteration      1(  23)  ---------------------------------------


    POTLOK:  cpu time      2.3241: real time      2.3255
    SETDIJ:  cpu time      4.4611: real time      4.4650
    TRIAL :  cpu time      1.2790: real time      1.2806
    CORREC:  cpu time      7.3557: real time      7.3618
    CHARGE:  cpu time      0.2188: real time      0.2188
    --------------------------------------------
      LOOP:  cpu time     15.6449: real time     15.6581

 eigenvalue-minimisations  :     0
 total energy-change (2. order) :-0.9261951E+03  (-0.1653692E+03)
 number of electron      88.0000000 magnetization 
 augmentation part        4.3456725 magnetization 

 Free energy of the ion-electron system (eV)
  ---------------------------------------------------
  alpha Z        PSCENC =         9.31836840
  Ewald energy   TEWEN  =      5700.99075705
  -Hartree energ DENC   =     -8224.43046361
  -exchange      EXHF   =         0.00000000
  -V(xc)+E(xc)   XCENC  =        54.45089635
  PAW double counting   =      7753.00556846    -8014.95754776
  entropy T*S    EENTRO =         0.00000000
  eigenvalues    EBANDS =     -3001.29978067
  atomic energy  EATOM  =      7408.66657912
  ---------------------------------------------------
  free energy    TOTEN  =      1685.74437736 eV

  energy without entropy =     1685.74437736  energy(sigma->0) =     1685.74437736


--------------------------------------------------------------------------------------------------------




--------------------------------------- Iteration      1(  24)  ---------------------------------------


    POTLOK:  cpu time      2.3121: real time      2.3143
    SETDIJ:  cpu time      4.4374: real time      4.4411
    TRIAL :  cpu time      1.2682: real time      1.2690
    CORREC:  cpu time      7.3540: real time      7.3600
    CHARGE:  cpu time      0.2206: real time      0.2206
    --------------------------------------------
      LOOP:  cpu time     15.5994: real time     15.6123

 eigenvalue-minimisations  :     0
 total energy-change (2. order) : 0.7127231E+02  (-0.9268833E+03)
 number of electron      88.0000000 magnetization 
 augmentation part       12.1529384 magnetization 

 Free energy of the ion-electron system (eV)
  ---------------------------------------------------
  alpha Z        PSCENC =         9.31836840
  Ewald energy   TEWEN  =      5700.99075705
  -Hartree energ DENC   =     -8092.71811766
  -exchange      EXHF   =         0.00000000
  -V(xc)+E(xc)   XCENC  =        49.73410024
  PAW double counting   =      9918.34343053   -10182.15691519
  entropy T*S    EENTRO =         0.00000000
  eigenvalues    EBANDS =     -3055.16151692
  atomic energy  EATOM  =      7408.66657912
  ---------------------------------------------------
  free energy    TOTEN  =      1757.01668558 eV

  energy without entropy =     1757.01668558  energy(sigma->0) =     1757.01668558


--------------------------------------------------------------------------------------------------------




--------------------------------------- Iteration      1(  25)  ---------------------------------------


    POTLOK:  cpu time      2.3132: real time      2.3153
    SETDIJ:  cpu time      4.4467: real time      4.4505
    TRIAL :  cpu time      1.2652: real time      1.2661
    CORREC:  cpu time      7.3762: real time      7.3822
    CHARGE:  cpu time      0.2195: real time      0.2204
    --------------------------------------------
      LOOP:  cpu time     15.6229: real time     15.6412

 eigenvalue-minimisations  :     0
 total energy-change (2. order) :-0.9171766E+03  (-0.3525589E+03)
 number of electron      87.9999999 magnetization 
 augmentation part       18.1782279 magnetization 

 Free energy of the ion-electron system (eV)
  ---------------------------------------------------
  alpha Z        PSCENC =         9.31836840
  Ewald energy   TEWEN  =      5700.99075705
  -Hartree energ DENC   =     -9380.61613820
  -exchange      EXHF   =         0.00000000
  -V(xc)+E(xc)   XCENC  =        89.76588329
  PAW double counting   =     25023.63091198   -25331.75480774
  entropy T*S    EENTRO =         0.00000000
  eigenvalues    EBANDS =     -2680.16151065
  atomic energy  EATOM  =      7408.66657912
  ---------------------------------------------------
  free energy    TOTEN  =       839.84004324 eV

  energy without entropy =      839.84004324  energy(sigma->0) =      839.84004324


--------------------------------------------------------------------------------------------------------




--------------------------------------- Iteration      1(  26)  ---------------------------------------


    POTLOK:  cpu time      2.3133: real time      2.3147
    SETDIJ:  cpu time      4.4619: real time      4.4655
    TRIAL :  cpu time      1.2656: real time      1.2673
    CORREC:  cpu time      7.3820: real time      7.3880
    CHARGE:  cpu time      0.2183: real time      0.2183
    --------------------------------------------
      LOOP:  cpu time     15.6438: real time     15.6613

 eigenvalue-minimisations  :     0
 total energy-change (2. order) :-0.3942196E+03  (-0.1010547E+03)
 number of electron      87.9999999 magnetization 
 augmentation part       15.9253002 magnetization 

 Free energy of the ion-electron system (eV)
  ---------------------------------------------------
  alpha Z        PSCENC =         9.31836840
  Ewald energy   TEWEN  =      5700.99075705
  -Hartree energ DENC   =    -10746.64384871
  -exchange      EXHF   =         0.00000000
  -V(xc)+E(xc)   XCENC  =       141.98820844
  PAW double counting   =     40946.69825740   -41288.17780603
  entropy T*S    EENTRO =         0.00000000
  eigenvalues    EBANDS =     -1727.22010126
  atomic energy  EATOM  =      7408.66657912
  ---------------------------------------------------
  free energy    TOTEN  =       445.62041441 eV

  energy without entropy =      445.62041441  energy(sigma->0) =      445.62041441


--------------------------------------------------------------------------------------------------------




--------------------------------------- Iteration      1(  27)  ---------------------------------------


    POTLOK:  cpu time      2.3134: real time      2.3155
    SETDIJ:  cpu time      4.4464: real time      4.4503
    TRIAL :  cpu time      1.2697: real time      1.2706
    CORREC:  cpu time      7.3698: real time      7.3758
    CHARGE:  cpu time      0.2200: real time      0.2200
    --------------------------------------------
      LOOP:  cpu time     15.6218: real time     15.6390

 eigenvalue-minimisations  :     0
 total energy-change (2. order) :-0.1333087E+03  (-0.1820380E+03)
 number of electron      87.9999999 magnetization 
 augmentation part       20.0412309 magnetization 

 Free energy of the ion-electron system (eV)
  ---------------------------------------------------
  alpha Z        PSCENC =         9.31836840
  Ewald energy   TEWEN  =      5700.99075705
  -Hartree energ DENC   =    -11273.13768130
  -exchange      EXHF   =         0.00000000
  -V(xc)+E(xc)   XCENC  =       155.93081716
  PAW double counting   =     45063.61775840   -45425.87876206
  entropy T*S    EENTRO =         0.00000000
  eigenvalues    EBANDS =     -1327.19614456
  atomic energy  EATOM  =      7408.66657912
  ---------------------------------------------------
  free energy    TOTEN  =       312.31169221 eV

  energy without entropy =      312.31169221  energy(sigma->0) =      312.31169221


--------------------------------------------------------------------------------------------------------




--------------------------------------- Iteration      1(  28)  ---------------------------------------


    POTLOK:  cpu time      2.3106: real time      2.3127
    SETDIJ:  cpu time      4.4503: real time      4.4541
    TRIAL :  cpu time      1.2673: real time      1.2682
    CORREC:  cpu time      7.3603: real time      7.3670
    CHARGE:  cpu time      0.2194: real time      0.2195
    --------------------------------------------
      LOOP:  cpu time     15.6106: real time     15.6281

 eigenvalue-minimisations  :     0
 total energy-change (2. order) :-0.1797864E+03  (-0.4028341E+02)
 number of electron      87.9999997 magnetization 
 augmentation part       25.2582092 magnetization 

 Free energy of the ion-electron system (eV)
  ---------------------------------------------------
  alpha Z        PSCENC =         9.31836840
  Ewald energy   TEWEN  =      5700.99075705
  -Hartree energ DENC   =    -10995.81382504
  -exchange      EXHF   =         0.00000000
  -V(xc)+E(xc)   XCENC  =       159.35872778
  PAW double counting   =     26201.95233332   -26538.92956815
  entropy T*S    EENTRO =         0.00000000
  eigenvalues    EBANDS =     -1813.01812607
  atomic energy  EATOM  =      7408.66657912
  ---------------------------------------------------
  free energy    TOTEN  =       132.52524641 eV

  energy without entropy =      132.52524641  energy(sigma->0) =      132.52524641


--------------------------------------------------------------------------------------------------------




--------------------------------------- Iteration      1(  29)  ---------------------------------------


    POTLOK:  cpu time      2.3108: real time      2.3120
    SETDIJ:  cpu time      4.4523: real time      4.4560
    TRIAL :  cpu time      1.2643: real time      1.2662
    CORREC:  cpu time      7.3689: real time      7.3750
    CHARGE:  cpu time      0.2210: real time      0.2209
    --------------------------------------------
      LOOP:  cpu time     15.6210: real time     15.6381

 eigenvalue-minimisations  :     0
 total energy-change (2. order) :-0.4316757E+02  (-0.5559947E+02)
 number of electron      87.9999997 magnetization 
 augmentation part       25.9400205 magnetization 

 Free energy of the ion-electron system (eV)
  ---------------------------------------------------
  alpha Z        PSCENC =         9.31836840
  Ewald energy   TEWEN  =      5700.99075705
  -Hartree energ DENC   =    -11245.31781639
  -exchange      EXHF   =         0.00000000
  -V(xc)+E(xc)   XCENC  =       169.78123725
  PAW double counting   =     22144.05534033   -22453.77822590
  entropy T*S    EENTRO =         0.00000000
  eigenvalues    EBANDS =     -1644.35856348
  atomic energy  EATOM  =      7408.66657912
  ---------------------------------------------------
  free energy    TOTEN  =        89.35767638 eV

  energy without entropy =       89.35767638  energy(sigma->0) =       89.35767638


--------------------------------------------------------------------------------------------------------




--------------------------------------- Iteration      1(  30)  ---------------------------------------


    POTLOK:  cpu time      2.3178: real time      2.3201
    SETDIJ:  cpu time      4.5167: real time      4.5206
    TRIAL :  cpu time      1.2656: real time      1.2664
    CORREC:  cpu time      7.3671: real time      7.3731
    CHARGE:  cpu time      0.2200: real time      0.2208
    --------------------------------------------
      LOOP:  cpu time     15.6904: real time     15.7080

 eigenvalue-minimisations  :     0
 total energy-change (2. order) :-0.5828988E+02  (-0.3134275E+02)
 number of electron      87.9999999 magnetization 
 augmentation part       22.7000498 magnetization 

 Free energy of the ion-electron system (eV)
  ---------------------------------------------------
  alpha Z        PSCENC =         9.31836840
  Ewald energy   TEWEN  =      5700.99075705
  -Hartree energ DENC   =    -11609.96551792
  -exchange      EXHF   =         0.00000000
  -V(xc)+E(xc)   XCENC  =       175.08433847
  PAW double counting   =     17888.05237207   -18193.43872267
  entropy T*S    EENTRO =         0.00000000
  eigenvalues    EBANDS =     -1347.64037351
  atomic energy  EATOM  =      7408.66657912
  ---------------------------------------------------
  free energy    TOTEN  =        31.06780102 eV

  energy without entropy =       31.06780102  energy(sigma->0) =       31.06780102


--------------------------------------------------------------------------------------------------------




--------------------------------------- Iteration      1(  31)  ---------------------------------------


    POTLOK:  cpu time      2.3123: real time      2.3137
    SETDIJ:  cpu time      4.4483: real time      4.4522
    TRIAL :  cpu time      1.2668: real time      1.2685
    CORREC:  cpu time      7.3662: real time      7.3721
    CHARGE:  cpu time      0.2204: real time      0.2204
    --------------------------------------------
      LOOP:  cpu time     15.6164: real time     15.6338

 eigenvalue-minimisations  :     0
 total energy-change (2. order) :-0.1508911E+02  (-0.2833693E+02)
 number of electron      87.9999999 magnetization 
 augmentation part       23.4812027 magnetization 

 Free energy of the ion-electron system (eV)
  ---------------------------------------------------
  alpha Z        PSCENC =         9.31836840
  Ewald energy   TEWEN  =      5700.99075705
  -Hartree energ DENC   =    -11604.56599261
  -exchange      EXHF   =         0.00000000
  -V(xc)+E(xc)   XCENC  =       168.50684477
  PAW double counting   =     12676.19224305   -12990.34751386
  entropy T*S    EENTRO =        -0.00000000
  eigenvalues    EBANDS =     -1352.78259285
  atomic energy  EATOM  =      7408.66657912
  ---------------------------------------------------
  free energy    TOTEN  =        15.97869307 eV

  energy without entropy =       15.97869307  energy(sigma->0) =       15.97869307


--------------------------------------------------------------------------------------------------------




--------------------------------------- Iteration      1(  32)  ---------------------------------------


    POTLOK:  cpu time      2.3112: real time      2.3134
    SETDIJ:  cpu time      4.4418: real time      4.4449
    TRIAL :  cpu time      1.2666: real time      1.2684
    CORREC:  cpu time      7.2632: real time      7.2689
    CHARGE:  cpu time      0.2195: real time      0.2195
    --------------------------------------------
      LOOP:  cpu time     15.5067: real time     15.5232

 eigenvalue-minimisations  :     0
 total energy-change (2. order) :-0.2948762E+02  ( 0.1111924E+02)
 number of electron      87.9999998 magnetization 
 augmentation part       23.9560688 magnetization 

 Free energy of the ion-electron system (eV)
  ---------------------------------------------------
  alpha Z        PSCENC =         9.31836840
  Ewald energy   TEWEN  =      5700.99075705
  -Hartree energ DENC   =    -11514.36750049
  -exchange      EXHF   =         0.00000000
  -V(xc)+E(xc)   XCENC  =       171.90247279
  PAW double counting   =     12194.03462759   -12509.19578636
  entropy T*S    EENTRO =        -0.00000000
  eigenvalues    EBANDS =     -1474.85844501
  atomic energy  EATOM  =      7408.66657912
  ---------------------------------------------------
  free energy    TOTEN  =       -13.50892690 eV

  energy without entropy =      -13.50892690  energy(sigma->0) =      -13.50892690


--------------------------------------------------------------------------------------------------------




--------------------------------------- Iteration      1(  33)  ---------------------------------------


    POTLOK:  cpu time      2.3116: real time      2.3138
    SETDIJ:  cpu time      4.4358: real time      4.4394
    TRIAL :  cpu time      1.2673: real time      1.2682
    CORREC:  cpu time      7.2677: real time      7.2740
    CHARGE:  cpu time      0.2196: real time      0.2197
    --------------------------------------------
      LOOP:  cpu time     15.5047: real time     15.5223

 eigenvalue-minimisations  :     0
 total energy-change (2. order) :-0.1686141E+02  ( 0.4771972E+02)
 number of electron      87.9999998 magnetization 
 augmentation part       24.1888624 magnetization 

 Free energy of the ion-electron system (eV)
  ---------------------------------------------------
  alpha Z        PSCENC =         9.31836840
  Ewald energy   TEWEN  =      5700.99075705
  -Hartree energ DENC   =    -11596.55752197
  -exchange      EXHF   =         0.00000000
  -V(xc)+E(xc)   XCENC  =       174.79796703
  PAW double counting   =     12130.49262394   -12444.93946864
  entropy T*S    EENTRO =        -0.00000000
  eigenvalues    EBANDS =     -1413.13964231
  atomic energy  EATOM  =      7408.66657912
  ---------------------------------------------------
  free energy    TOTEN  =       -30.37033738 eV

  energy without entropy =      -30.37033738  energy(sigma->0) =      -30.37033738


--------------------------------------------------------------------------------------------------------




--------------------------------------- Iteration      1(  34)  ---------------------------------------


    POTLOK:  cpu time      2.3190: real time      2.3213
    SETDIJ:  cpu time      4.4597: real time      4.4635
    TRIAL :  cpu time      1.2641: real time      1.2650
    CORREC:  cpu time      7.2702: real time      7.2760
    CHARGE:  cpu time      0.2192: real time      0.2200
    --------------------------------------------
      LOOP:  cpu time     15.5350: real time     15.5525

 eigenvalue-minimisations  :     0
 total energy-change (2. order) :-0.1345430E+02  ( 0.1304285E+02)
 number of electron      87.9999998 magnetization 
 augmentation part       24.5731764 magnetization 

 Free energy of the ion-electron system (eV)
  ---------------------------------------------------
  alpha Z        PSCENC =         9.31836840
  Ewald energy   TEWEN  =      5700.99075705
  -Hartree energ DENC   =    -11666.25848443
  -exchange      EXHF   =         0.00000000
  -V(xc)+E(xc)   XCENC  =       176.00328863
  PAW double counting   =     11760.68420727   -12073.19892653
  entropy T*S    EENTRO =        -0.00000000
  eigenvalues    EBANDS =     -1360.03042498
  atomic energy  EATOM  =      7408.66657912
  ---------------------------------------------------
  free energy    TOTEN  =       -43.82463547 eV

  energy without entropy =      -43.82463547  energy(sigma->0) =      -43.82463547


--------------------------------------------------------------------------------------------------------




--------------------------------------- Iteration      1(  35)  ---------------------------------------


    POTLOK:  cpu time      2.3131: real time      2.3146
    SETDIJ:  cpu time      4.4475: real time      4.4515
    TRIAL :  cpu time      1.2630: real time      1.2647
    CORREC:  cpu time      7.2732: real time      7.2794
    CHARGE:  cpu time      0.2177: real time      0.2178
    --------------------------------------------
      LOOP:  cpu time     15.5182: real time     15.5362

 eigenvalue-minimisations  :     0
 total energy-change (2. order) :-0.1557743E+02  ( 0.1585502E+02)
 number of electron      87.9999998 magnetization 
 augmentation part       25.1084588 magnetization 

 Free energy of the ion-electron system (eV)
  ---------------------------------------------------
  alpha Z        PSCENC =         9.31836840
  Ewald energy   TEWEN  =      5700.99075705
  -Hartree energ DENC   =    -11727.19980568
  -exchange      EXHF   =         0.00000000
  -V(xc)+E(xc)   XCENC  =       177.64304507
  PAW double counting   =     11405.71372449   -11715.39194062
  entropy T*S    EENTRO =        -0.00000000
  eigenvalues    EBANDS =     -1319.14279635
  atomic energy  EATOM  =      7408.66657912
  ---------------------------------------------------
  free energy    TOTEN  =       -59.40206850 eV

  energy without entropy =      -59.40206850  energy(sigma->0) =      -59.40206850


--------------------------------------------------------------------------------------------------------




--------------------------------------- Iteration      1(  36)  ---------------------------------------


    POTLOK:  cpu time      2.3135: real time      2.3148
    SETDIJ:  cpu time      4.4229: real time      4.4267
    TRIAL :  cpu time      1.2654: real time      1.2673
    CORREC:  cpu time      7.2702: real time      7.2762
    CHARGE:  cpu time      0.2197: real time      0.2196
    --------------------------------------------
      LOOP:  cpu time     15.4945: real time     15.5117

 eigenvalue-minimisations  :     0
 total energy-change (2. order) :-0.1995829E+02  ( 0.2221637E+02)
 number of electron      87.9999998 magnetization 
 augmentation part       25.7656319 magnetization 

 Free energy of the ion-electron system (eV)
  ---------------------------------------------------
  alpha Z        PSCENC =         9.31836840
  Ewald energy   TEWEN  =      5700.99075705
  -Hartree energ DENC   =    -11809.81242690
  -exchange      EXHF   =         0.00000000
  -V(xc)+E(xc)   XCENC  =       179.99964745
  PAW double counting   =     11039.36642123   -11345.18459888
  entropy T*S    EENTRO =        -0.00000000
  eigenvalues    EBANDS =     -1262.70510232
  atomic energy  EATOM  =      7408.66657912
  ---------------------------------------------------
  free energy    TOTEN  =       -79.36035484 eV

  energy without entropy =      -79.36035484  energy(sigma->0) =      -79.36035484


--------------------------------------------------------------------------------------------------------




--------------------------------------- Iteration      1(  37)  ---------------------------------------


    POTLOK:  cpu time      2.3126: real time      2.3150
    SETDIJ:  cpu time      4.4506: real time      4.4542
    TRIAL :  cpu time      1.2689: real time      1.2697
    CORREC:  cpu time      7.2904: real time      7.2967
    CHARGE:  cpu time      0.2195: real time      0.2194
    --------------------------------------------
      LOOP:  cpu time     15.5456: real time     15.5628

 eigenvalue-minimisations  :     0
 total energy-change (2. order) :-0.2367971E+02  ( 0.3066522E+02)
 number of electron      87.9999998 magnetization 
 augmentation part       26.4923175 magnetization 

 Free energy of the ion-electron system (eV)
  ---------------------------------------------------
  alpha Z        PSCENC =         9.31836840
  Ewald energy   TEWEN  =      5700.99075705
  -Hartree energ DENC   =    -11903.00786363
  -exchange      EXHF   =         0.00000000
  -V(xc)+E(xc)   XCENC  =       182.75387849
  PAW double counting   =     10636.80897309   -10937.56284544
  entropy T*S    EENTRO =        -0.00000000
  eigenvalues    EBANDS =     -1201.00791103
  atomic energy  EATOM  =      7408.66657912
  ---------------------------------------------------
  free energy    TOTEN  =      -103.04006394 eV

  energy without entropy =     -103.04006394  energy(sigma->0) =     -103.04006394


--------------------------------------------------------------------------------------------------------




--------------------------------------- Iteration      1(  38)  ---------------------------------------


    POTLOK:  cpu time      2.3269: real time      2.3293
[...]
      LOOP:  cpu time     12.4643: real time     12.4804

 eigenvalue-minimisations  :     0
 total energy-change (2. order) : 0.1195873E-03  ( 0.1608717E-03)
 number of electron      87.9999998 magnetization 
 augmentation part       32.7631158 magnetization 

 Free energy of the ion-electron system (eV)
  ---------------------------------------------------
  alpha Z        PSCENC =         9.31836840
  Ewald energy   TEWEN  =      5700.99075705
  -Hartree energ DENC   =    -12806.17349544
  -exchange      EXHF   =         0.00000000
  -V(xc)+E(xc)   XCENC  =       212.07861222
  PAW double counting   =      9071.17753383    -9288.54322227
  entropy T*S    EENTRO =        -0.00000000
  eigenvalues    EBANDS =      -632.39174247
  atomic energy  EATOM  =      7408.66657912
  ---------------------------------------------------
  free energy    TOTEN  =      -324.87660956 eV

  energy without entropy =     -324.87660956  energy(sigma->0) =     -324.87660956


--------------------------------------------------------------------------------------------------------




--------------------------------------- Iteration      1(  69)  ---------------------------------------


    POTLOK:  cpu time      0.7921: real time      0.7930
    SETDIJ:  cpu time      4.4174: real time      4.4213
    TRIAL :  cpu time      1.2741: real time      1.2756
    CORREC:  cpu time      5.8104: real time      5.8151
    CHARGE:  cpu time      0.2208: real time      0.2206
    --------------------------------------------
      LOOP:  cpu time     12.5190: real time     12.5334

 eigenvalue-minimisations  :     0
 total energy-change (2. order) :-0.1899337E-03  (-0.6885179E-04)
 number of electron      87.9999998 magnetization 
 augmentation part       32.7631062 magnetization 

 Free energy of the ion-electron system (eV)
  ---------------------------------------------------
  alpha Z        PSCENC =         9.31836840
  Ewald energy   TEWEN  =      5700.99075705
  -Hartree energ DENC   =    -12806.16956880
  -exchange      EXHF   =         0.00000000
  -V(xc)+E(xc)   XCENC  =       212.07926886
  PAW double counting   =      9070.13102539    -9287.49581179
  entropy T*S    EENTRO =        -0.00000000
  eigenvalues    EBANDS =      -632.39741772
  atomic energy  EATOM  =      7408.66657912
  ---------------------------------------------------
  free energy    TOTEN  =      -324.87679949 eV

  energy without entropy =     -324.87679949  energy(sigma->0) =     -324.87679949


--------------------------------------------------------------------------------------------------------




--------------------------------------- Iteration      1(  70)  ---------------------------------------


    POTLOK:  cpu time      0.7935: real time      0.7943
    SETDIJ:  cpu time      4.4109: real time      4.4148
    TRIAL :  cpu time      1.2669: real time      1.2678
    CORREC:  cpu time      5.7312: real time      5.7365
    CHARGE:  cpu time      0.2171: real time      0.2171
    --------------------------------------------
      LOOP:  cpu time     12.4225: real time     12.4374

 eigenvalue-minimisations  :     0
 total energy-change (2. order) : 0.1711686E-03  ( 0.2754422E-04)
 number of electron      87.9999998 magnetization 
 augmentation part       32.7630748 magnetization 

 Free energy of the ion-electron system (eV)
  ---------------------------------------------------
  alpha Z        PSCENC =         9.31836840
  Ewald energy   TEWEN  =      5700.99075705
  -Hartree energ DENC   =    -12806.16077003
  -exchange      EXHF   =         0.00000000
  -V(xc)+E(xc)   XCENC  =       212.07924462
  PAW double counting   =      9069.89349653    -9287.25812547
  entropy T*S    EENTRO =        -0.00000000
  eigenvalues    EBANDS =      -632.40617854
  atomic energy  EATOM  =      7408.66657912
  ---------------------------------------------------
  free energy    TOTEN  =      -324.87662832 eV

  energy without entropy =     -324.87662832  energy(sigma->0) =     -324.87662832


--------------------------------------------------------------------------------------------------------




--------------------------------------- Iteration      1(  71)  ---------------------------------------


    POTLOK:  cpu time      0.7910: real time      0.7919
    SETDIJ:  cpu time      4.4219: real time      4.4257
    TRIAL :  cpu time      1.2666: real time      1.2675
    CORREC:  cpu time      5.8171: real time      5.8224
    CHARGE:  cpu time      0.2176: real time      0.2176
    --------------------------------------------
      LOOP:  cpu time     12.5168: real time     12.5319

 eigenvalue-minimisations  :     0
 total energy-change (2. order) :-0.1455712E-03  (-0.6645127E-04)
 number of electron      87.9999998 magnetization 
 augmentation part       32.7630642 magnetization 

 Free energy of the ion-electron system (eV)
  ---------------------------------------------------
  alpha Z        PSCENC =         9.31836840
  Ewald energy   TEWEN  =      5700.99075705
  -Hartree energ DENC   =    -12806.13577273
  -exchange      EXHF   =         0.00000000
  -V(xc)+E(xc)   XCENC  =       212.07935264
  PAW double counting   =      9069.17206653    -9286.53626004
  entropy T*S    EENTRO =        -0.00000000
  eigenvalues    EBANDS =      -632.43186487
  atomic energy  EATOM  =      7408.66657912
  ---------------------------------------------------
  free energy    TOTEN  =      -324.87677389 eV

  energy without entropy =     -324.87677389  energy(sigma->0) =     -324.87677389


--------------------------------------------------------------------------------------------------------




--------------------------------------- Iteration      1(  72)  ---------------------------------------


    POTLOK:  cpu time      0.7946: real time      0.7954
    SETDIJ:  cpu time      4.4172: real time      4.4211
    TRIAL :  cpu time      1.2695: real time      1.2703
    CORREC:  cpu time     23.3218: real time     23.3420
    EDDIAG:  cpu time      0.3911: real time      0.3905
    CHARGE:  cpu time      0.2188: real time      0.2188
    --------------------------------------------
      LOOP:  cpu time     30.4189: real time     30.4478

 eigenvalue-minimisations  :     0
 total energy-change (2. order) : 0.5109313E-04  (-0.1248305E-04)
 number of electron      87.9999998 magnetization 
 augmentation part       32.7628823 magnetization 

 Free energy of the ion-electron system (eV)
  ---------------------------------------------------
  alpha Z        PSCENC =         9.31836840
  Ewald energy   TEWEN  =      5700.99075705
  -Hartree energ DENC   =    -12806.12736495
  -exchange      EXHF   =         0.00000000
  -V(xc)+E(xc)   XCENC  =       212.07941210
  PAW double counting   =      9068.84333858    -9286.20732781
  entropy T*S    EENTRO =        -0.00000000
  eigenvalues    EBANDS =      -632.44048530
  atomic energy  EATOM  =      7408.66657912
  ---------------------------------------------------
  free energy    TOTEN  =      -324.87672280 eV

  energy without entropy =     -324.87672280  energy(sigma->0) =     -324.87672280


--------------------------------------------------------------------------------------------------------


  average scaling for gradient   0.1355


 average (electrostatic) potential at core
  the test charge radii are     1.2098
  (the norm of the test charge is              1.0000)
       1 -81.5876       2 -81.4130       3 -81.4111       4 -81.4116       5 -81.5872
       6 -81.5890       7 -81.4112       8 -81.5898
 
 
 
 E-fermi :  -5.0260     XC(G=0):  -0.6064     alpha+bet : -0.2375

 Fermi energy:        -5.0260357701

 k-point     1 :       0.0000    0.0000    0.0000
  band No.  band energies     occupation 
      1     -10.4164      2.00000
      2      -9.7478      2.00000
      3      -9.7461      2.00000
      4      -8.9856      2.00000
      5      -8.6453      2.00000
      6      -8.6067      2.00000
      7      -8.3693      2.00000
      8      -8.1711      2.00000
      9      -8.1709      2.00000
     10      -8.1304      2.00000
     11      -8.1215      2.00000
     12      -8.0360      2.00000
     13      -7.6723      2.00000
     14      -7.3750      2.00000
     15      -7.3663      2.00000
     16      -7.3533      2.00000
     17      -7.3516      2.00000
     18      -7.2235      2.00000
     19      -7.2232      2.00000
     20      -7.1772      2.00000
     21      -7.1201      2.00000
     22      -7.0902      2.00000
     23      -7.0714      2.00000
     24      -7.0666      2.00000
     25      -6.9313      2.00000
     26      -6.6269      2.00000
     27      -6.6160      2.00000
     28      -6.6136      2.00000
     29      -6.5204      2.00000
     30      -6.5188      2.00000
     31      -6.4349      2.00000
     32      -6.3075      2.00000
     33      -6.3002      2.00000
     34      -6.2998      2.00000
     35      -6.2311      2.00000
     36      -6.1476      2.00000
     37      -6.0746      2.00000
     38      -6.0746      2.00000
     39      -6.0008      2.00000
     40      -5.9105      2.00000
     41      -5.7347      2.00000
     42      -5.7303      2.00000
     43      -5.6938      2.00000
     44      -5.2879      2.00000
     45      -3.6511      0.00000
     46      -2.9097      0.00000
     47      -2.3328      0.00000
     48      -2.3313      0.00000
     49      -1.5994      0.00000
     50      -0.5099      0.00000
     51      -0.5051      0.00000
     52      -0.4542      0.00000
     53      -0.3981      0.00000
     54      -0.3383      0.00000
     55      -0.2177      0.00000
     56       0.2318      0.00000
     57       0.2578      0.00000
     58       0.2818      0.00000
     59       0.4444      0.00000
     60       0.4769      0.00000
     61       0.5320      0.00000
     62       0.6386      0.00000
     63       0.7150      0.00000
     64       0.9485      0.00000


--------------------------------------------------------------------------------------------------------


 soft charge-density along one line, spin component           1
         0         1         2         3         4         5         6         7         8         9
 total charge-density along one line
 
 pseudopotential strength for first ion, spin component:           1
 -9.331  -0.005   0.020   0.040  -0.000  -9.455  -0.005   0.020
 -0.005  -9.356   0.023  -0.020  -0.046  -0.005  -9.480   0.023
  0.020   0.023  -9.368   0.003  -0.001   0.020   0.023  -9.492
  0.040  -0.020   0.003  -9.358  -0.003   0.040  -0.020   0.003
 -0.000  -0.046  -0.001  -0.003  -9.337  -0.000  -0.045  -0.000
 -9.455  -0.005   0.020   0.040  -0.000  -9.565  -0.005   0.020
 -0.005  -9.480   0.023  -0.020  -0.045  -0.005  -9.588   0.023
  0.020   0.023  -9.492   0.003  -0.000   0.020   0.023  -9.600
  0.040  -0.020   0.003  -9.482  -0.003   0.039  -0.019   0.003
 -0.000  -0.045  -0.000  -0.003  -9.461  -0.000  -0.044  -0.000
  0.018  -0.048   0.018  -0.001  -0.005   0.017  -0.046   0.017
  0.026  -0.071   0.026  -0.002  -0.007   0.026  -0.069   0.026
  0.002   0.001  -0.000  -0.000  -0.001   0.002   0.001  -0.000
 -0.000   0.000   0.001   0.002  -0.000  -0.000   0.000   0.001
  0.000  -0.000  -0.001  -0.000   0.001   0.000  -0.000  -0.001
 -0.000  -0.000   0.000  -0.000  -0.000  -0.000  -0.000   0.000
 -0.000  -0.000   0.000  -0.001  -0.001  -0.000  -0.000   0.000
 -0.001  -0.000   0.001  -0.001  -0.002  -0.001  -0.000   0.001
 total augmentation occupancy for first ion, spin component:           1
  4.031  -0.123  -0.127  -0.378   0.018  -1.685   0.178   0.244   0.591  -0.011  -1.093   0.422   0.025   0.008   0.035   0.002
 -0.123   4.666  -0.377   0.195   0.499   0.179  -2.426   0.518  -0.233  -0.607   3.105  -1.175   0.014   0.017   0.035   0.002
 -0.127  -0.377   4.433  -0.079   0.015   0.243   0.519  -2.106  -0.031   0.008  -1.195   0.447  -0.014  -0.008  -0.049   0.001
 -0.378   0.195  -0.079   4.256   0.042   0.592  -0.235  -0.030  -1.951  -0.055   0.188  -0.061   0.012   0.045   0.069   0.000
  0.018   0.499   0.015   0.042   4.086  -0.010  -0.609   0.009  -0.055  -1.596   0.432  -0.150   0.015   0.030   0.090  -0.002
 -1.685   0.179   0.243   0.592  -0.010   1.304  -0.223  -0.333  -0.758   0.004   0.940  -0.369  -0.034  -0.008  -0.038   0.002
  0.178  -2.426   0.519  -0.235  -0.609  -0.223   2.126  -0.628   0.263   0.691  -2.668   1.034  -0.017  -0.017  -0.032   0.000
  0.244   0.518  -2.106  -0.030   0.009  -0.333  -0.628   1.737   0.118  -0.026   1.028  -0.395   0.015   0.003   0.053  -0.001
  0.591  -0.233  -0.031  -1.951  -0.055  -0.758   0.263   0.118   1.599   0.064  -0.159   0.055  -0.011  -0.053  -0.072  -0.000
 -0.011  -0.607   0.008  -0.055  -1.596   0.004   0.691  -0.026   0.064   1.098  -0.370   0.136  -0.013  -0.030  -0.098   0.001
 -1.093   3.105  -1.195   0.188   0.432   0.940  -2.668   1.028  -0.159  -0.370   5.810  -2.220  -0.020  -0.033  -0.082   0.002
  0.422  -1.175   0.447  -0.061  -0.150  -0.369   1.034  -0.395   0.055   0.136  -2.220   0.851   0.009   0.016   0.039  -0.001
  0.025   0.014  -0.014   0.012   0.015  -0.034  -0.017   0.015  -0.011  -0.013  -0.020   0.009   0.116  -0.103   0.033  -0.008
  0.008   0.017  -0.008   0.045   0.030  -0.008  -0.017   0.003  -0.053  -0.030  -0.033   0.016  -0.103   0.168  -0.011   0.007
  0.035   0.035  -0.049   0.069   0.090  -0.038  -0.032   0.053  -0.072  -0.098  -0.082   0.039   0.033  -0.011   0.076  -0.002
  0.002   0.002   0.001   0.000  -0.002   0.002   0.000  -0.001  -0.000   0.001   0.002  -0.001  -0.008   0.007  -0.002   0.001
  0.000   0.001   0.001   0.000  -0.002  -0.000  -0.000   0.001   0.003   0.002   0.004  -0.002   0.007  -0.012   0.001  -0.001
 -0.003   0.000  -0.001  -0.002  -0.001   0.003  -0.000  -0.002   0.004   0.005   0.010  -0.004  -0.002   0.001  -0.005   0.000


------------------------ aborting loop because EDIFF is reached ----------------------------------------


    FORLOC:  cpu time      0.0206: real time      0.0206
    FORNL :  cpu time      0.1608: real time      0.1609
    STRESS:  cpu time      3.6373: real time      3.6405
    FORCOR:  cpu time      0.7583: real time      0.7594
    OFIELD:  cpu time      0.0005: real time      0.0005

  FORCE on cell =-STRESS in cart. coord.  units (eV):
  Direction    XX          YY          ZZ          XY          YZ          ZX
  --------------------------------------------------------------------------------------
  Alpha Z     9.31837     9.31837     9.31837
  Ewald    3139.86093   250.68105  2310.44516  1883.96329 -2510.10911  1303.98451
  Hartree  5258.90900  2950.68626  4596.39171  1472.16553 -1962.82745  1018.38261
  E(xc)    -424.11710  -425.35591  -424.47343     0.88827    -1.18073     0.61694
  Local   -9735.32616 -4575.29213 -8254.14956 -3329.38696  4437.42485 -2303.80334
  n-local    -8.72947     4.63201    -4.86827    -9.56595    12.70357    -6.64275
  augment   537.43589   543.49619   539.17709    -4.33743     5.76072    -3.01126
  Kinetic  1226.11156  1243.57381  1231.13955   -12.49587    16.59151    -8.66820
  Fock        0.00000     0.00000     0.00000     0.00000     0.00000     0.00000
  -------------------------------------------------------------------------------------
  Total       3.46301     1.73965     2.98062     1.23088    -1.63663     0.85851
  in kB       0.69355     0.34840     0.59694     0.24651    -0.32777     0.17194
  external pressure =        0.55 kB  Pullay stress =        0.00 kB


 VOLUME and BASIS-vectors are now :
 -----------------------------------------------------------------------------
  energy-cutoff  :      520.00
  volume of cell :     8000.00
      direct lattice vectors                 reciprocal lattice vectors
    20.000000000  0.000000000  0.000000000     0.050000000  0.000000000  0.000000000
     0.000000000 20.000000000  0.000000000     0.000000000  0.050000000  0.000000000
     0.000000000  0.000000000 20.000000000     0.000000000  0.000000000  0.050000000

  length of vectors
    20.000000000 20.000000000 20.000000000     0.050000000  0.050000000  0.050000000


 FORCES acting on ions:
    Electron-Ion                     Ewald-Force                    Non-Local-Force
 -----------------------------------------------------------------------------------------------
   -.387E+03 -.937E+02 -.157E+03   0.387E+03 0.936E+02 0.156E+03   0.556E+00 0.132E+00 0.218E+00
   -.355E+03 0.190E+03 -.542E+03   0.352E+03 -.188E+03 0.537E+03   0.389E+01 -.206E+01 0.595E+01
   0.357E+03 -.193E+03 0.540E+03   -.353E+03 0.191E+03 -.535E+03   -.391E+01 0.210E+01 -.593E+01
   0.509E+03 0.402E+03 -.193E+03   -.504E+03 -.398E+03 0.191E+03   -.561E+01 -.442E+01 0.209E+01
   0.386E+03 0.952E+02 0.158E+03   -.386E+03 -.951E+02 -.157E+03   -.548E+00 -.124E+00 -.239E+00
   -.692E+02 -.266E+03 0.330E+03   0.692E+02 0.266E+03 -.330E+03   0.953E-01 0.396E+00 -.487E+00
   -.509E+03 -.400E+03 0.194E+03   0.504E+03 0.396E+03 -.192E+03   0.561E+01 0.442E+01 -.212E+01
   0.692E+02 0.266E+03 -.330E+03   -.691E+02 -.266E+03 0.330E+03   -.991E-01 -.392E+00 0.479E+00
 -----------------------------------------------------------------------------------------------
   0.134E-01 -.372E-01 -.204E-01   -.853E-13 0.568E-13 0.568E-13   -.194E-01 0.415E-01 -.282E-01
 
 
 POSITION                                       TOTAL-FORCE (eV/Angst)
 -----------------------------------------------------------------------------------
     11.74630     10.42503     10.70172         0.120440      0.029292      0.049953
     11.88015      8.99678     12.87644         0.238044     -0.129358      0.373603
      8.11115     11.02000      7.12329        -0.242752      0.119589     -0.364565
      7.29668      7.87993     11.01831        -0.369997     -0.314276      0.125429
      8.25169      9.57829      9.28880        -0.115085     -0.015411     -0.053535
     10.31108     11.19948      8.50656         0.021310      0.084846     -0.099465
     12.70338     12.11980      8.97008         0.371441      0.314590     -0.133625
      9.68592      8.80602     11.48594        -0.023402     -0.089272      0.102204
 -----------------------------------------------------------------------------------
    total drift:                               -0.005980      0.004237     -0.048639


--------------------------------------------------------------------------------------------------------



  FREE ENERGIE OF THE ION-ELECTRON SYSTEM (eV)
  ---------------------------------------------------
  free  energy   TOTEN  =      -324.87672280 eV

  energy  without entropy=     -324.87672280  energy(sigma->0) =     -324.87672280
 


--------------------------------------------------------------------------------------------------------


    POTLOK:  cpu time      5.7024: real time      5.7070


--------------------------------------------------------------------------------------------------------


     LOOP+:  cpu time   1017.4808: real time   1018.7441
    4ORBIT:  cpu time      0.0001: real time      0.0001

 total amount of memory used by VASP MPI-rank0    72393. kBytes
=======================================================================

   base      :      30000. kBytes
   nonlr-proj:       1298. kBytes
   fftplans  :      12137. kBytes
   grid      :      26351. kBytes
   one-center:         15. kBytes
   wavefun   :       2592. kBytes
 
  
  
 General timing and accounting informations for this job:
 ========================================================
  
                  Total CPU time used (sec):     1030.211
                            User time (sec):     1027.304
                          System time (sec):        2.908
                         Elapsed time (sec):     1032.272
  
                   Maximum memory used (kb):      754168.
                   Average memory used (kb):          N/A
  
                          Minor page faults:       174945
                          Major page faults:            0
                 Voluntary context switches:        10765
