 vasp.6.3.0 20Jan22 (build Apr  1 2022 16:44:48) complex                         
 executed on        HPECrayEX_GCC date 2022.12.11  16:06:00
 running 1024 mpi-ranks, with    1 threads/rank
 distrk:  each k-point on  512 cores,    2 groups
 distr:  one band on NCORE=   4 cores,  128 groups


--------------------------------------------------------------------------------------------------------


 INCAR:
   SYSTEM = MgO-rocksalt
   ISMEAR = 0
   SIGMA = 0.05
   EDIFF = 1E-6
   ALGO = ALL
   ISTART = 0
   IBRION = -1
   NSW = 0
   ISYM = 2
   DIPOL = 0.5 0.5 0.5
   IDIPOL = 3
   LDIPOL = .TRUE.
   METAGGA = R2SCAN
   ENCUT = 520
   PREC = Accurate
   LASPH = .TRUE.
   LREAL = Auto
   ISPIN = 1
   NELM = 200
   NELMIN = 8
   NCORE = 4
   KPAR = 2
   LWAVE = .FALSE.
   LCHARG = .FALSE.

 POTCAR:    PAW_PBE Cu 22Jun2005                  
 POTCAR:    PAW_PBE Cu 22Jun2005                  
   SHA256 =  0e71e558f37a4e8407882b4609ceaae59938afaad9ced71dfe8490308a0ab630 Cu/POTCAR             
   COPYR  = (c) Copyright 22Jun2005 Georg Kresse                                                    
   COPYR  = This file is part of the software VASP. Any use, copying, and all other rights are regul
   COPYR  = If you do not have a valid VASP license, you may not use, copy or distribute this file. 
   VRHFIN =Cu: d10 p1                                                                               
   LEXCH  = PE                                                                                      
   EATOM  =  1390.9808 eV,  102.2342 Ry                                                             
                                                                                                    
   TITEL  = PAW_PBE Cu 22Jun2005                                                                    
   LULTRA =        F    use ultrasoft PP ?                                                          
   IUNSCR =        1    unscreen: 0-lin 1-nonlin 2-no                                               
   RPACOR =    2.000    partial core radius                                                         
   POMASS =   63.546; ZVAL   =   11.000    mass and valenz                                          
   RCORE  =    2.300    outmost cutoff radius                                                       
   RWIGS  =    2.200; RWIGS  =    1.164    wigner-seitz radius (au A)                               
   ENMAX  =  295.446; ENMIN  =  221.585 eV                                                          
   ICORE  =        3    local potential                                                             
   LCOR   =        T    correct aug charges                                                         
   LPAW   =        T    paw PP                                                                      
   EAUG   =  586.980                                                                                
   DEXC   =    0.000                                                                                
   RMAX   =    2.344    core radius for proj-oper                                                   
   RAUG   =    1.300    factor for augmentation sphere                                              
   RDEP   =    2.302    radius for radial grids                                                     
   RDEPT  =    1.771    core radius for aug-charge                                                  
                                                                                                    
   Atomic configuration                                                                             
    9 entries                                                                                       
     n  l   j            E        occ.                                                              
     1  0  0.50     -8850.2468   2.0000                                                             
     2  0  0.50     -1062.3498   2.0000                                                             
     2  1  1.50      -916.8226   6.0000                                                             
     3  0  0.50      -114.6929   2.0000                                                             
     3  1  1.50       -72.1325   6.0000                                                             
     3  2  2.50        -5.0394  10.0000                                                             
     4  0  0.50        -4.6097   1.0000                                                             
     4  1  0.50        -4.0817   0.0000                                                             
     4  3  2.50        -1.3606   0.0000                                                             
   Description                                                                                      
     l       E           TYP  RCUT    TYP  RCUT                                                     
     2     -5.0393973     23  2.200                                                                 
     2     10.8846608     23  2.200                                                                 
     0     -4.6097109     23  2.200                                                                 
     0      8.2520465     23  2.200                                                                 
     1     -2.7211652     23  2.200                                                                 
     1     21.7055443     23  2.200                                                                 
     3      2.7211652     23  2.300                                                                 
  local pseudopotential read in
  partial core-charges read in
  partial kinetic energy density read in
  atomic valenz-charges read in
  non local Contribution for L=           2  read in
    real space projection operators read in
  non local Contribution for L=           2  read in
    real space projection operators read in
  non local Contribution for L=           0  read in
    real space projection operators read in
  non local Contribution for L=           0  read in
    real space projection operators read in
  non local Contribution for L=           1  read in
    real space projection operators read in
  non local Contribution for L=           1  read in
    real space projection operators read in
    PAW grid and wavefunctions read in

   number of l-projection  operators is LMAX  =           6
   number of lm-projection operators is LMMAX =          18

 -----------------------------------------------------------------------------
|                                                                             |
|               ----> ADVICE to this user running VASP <----                  |
|                                                                             |
|     You have a (more or less) 'small supercell' and for smaller cells       |
|     it is recommended to use the reciprocal-space projection scheme!        |
|     The real-space optimization is not efficient for small cells and it     |
|     is also less accurate ...                                               |
|     Therefore, set LREAL=.FALSE. in the INCAR file.                         |
|                                                                             |
 -----------------------------------------------------------------------------

 Optimization of the real space projectors (new method)

 maximal supplied QI-value         = 16.25
 optimisation between [QCUT,QGAM] = [ 11.54, 23.24] = [ 37.28,151.24] Ry 
 Optimized for a Real-space Cutoff    1.53 Angstroem

   l    n(q)    QCUT    max X(q) W(low)/X(q) W(high)/X(q)  e(spline) 
   2     10    11.539     4.610    0.96E-04    0.13E-03    0.19E-06
   2     10    11.539     8.522    0.16E-03    0.21E-03    0.28E-06
   0     11    11.539    51.609    0.45E-04    0.31E-04    0.11E-06
   0     11    11.539    27.747    0.39E-04    0.29E-04    0.10E-06
   1     10    11.539    20.408    0.70E-05    0.38E-04    0.18E-06
   1     10    11.539    13.425    0.66E-05    0.34E-04    0.17E-06
  PAW_PBE Cu 22Jun2005                  :
 energy of atom  1       EATOM=-1390.9808
 kinetic energy error for atom=    0.0037 (will be added to EATOM!!)


 POSCAR: Cu
  positions in direct lattice
  No initial velocities read in

 METAGGA = R2SCA    LMAXTAU =  6    LMIXTAU =  F

 exchange correlation table for  LEXCH =        8
   RHO(1)=    0.500       N(1)  =     2000
   RHO(2)=  100.500       N(2)  =     4000



--------------------------------------------------------------------------------------------------------


 ion  position               nearest neighbor table
   1  0.500  0.500  0.691-   2 2.22
   2  0.500  0.500  0.590-   1 2.22

  LATTYP: Found a simple tetragonal cell.
 ALAT       =    21.1388521970
 C/A-ratio  =     1.0461251639
  
  Lattice vectors:
  
 A1 = (  21.1388521970,   0.0000000000,   0.0000000000)
 A2 = (   0.0000000000,  21.1388521970,   0.0000000000)
 A3 = (   0.0000000000,   0.0000000000,  22.1138852197)


Analysis of symmetry for initial positions (statically):
=====================================================================
 Subroutine PRICEL returns:
 Original cell was already a primitive cell.
 

 Routine SETGRP: Setting up the symmetry group for a 
 simple tetragonal supercell.


 Subroutine GETGRP returns: Found 16 space group operations
 (whereof  8 operations were pure point group operations)
 out of a pool of 16 trial point group operations.


The static configuration has the point symmetry C_4v.
 The point group associated with its full space group is D_4h.


Analysis of symmetry for dynamics (positions and initial velocities):
=====================================================================
 Subroutine PRICEL returns:
 Original cell was already a primitive cell.
 

 Routine SETGRP: Setting up the symmetry group for a 
 simple tetragonal supercell.


 Subroutine GETGRP returns: Found 16 space group operations
 (whereof  8 operations were pure point group operations)
 out of a pool of 16 trial point group operations.


The dynamic configuration has the point symmetry C_4v.
 The point group associated with its full space group is D_4h.


 Subroutine INISYM returns: Found 16 space group operations
 (whereof  8 operations are pure point group operations),
 and found     1 'primitive' translations


----------------------------------------------------------------------------------------

                                     Primitive cell                                     

  volume of cell :    9881.6133

  direct lattice vectors                    reciprocal lattice vectors
    21.138852197  0.000000000  0.000000000     0.047306258  0.000000000  0.000000000
     0.000000000 21.138852197  0.000000000     0.000000000  0.047306258  0.000000000
     0.000000000  0.000000000 22.113885220     0.000000000  0.000000000  0.045220457

  length of vectors
    21.138852197 21.138852197 22.113885220     0.047306258  0.047306258  0.045220457

  position of ions in fractional coordinates (direct lattice)
     0.500000000  0.500000000  0.690978901
     0.500000000  0.500000000  0.590413244

  ion indices of the primitive-cell ions
   primitive index   ion index
                 1           1
                 2           2

----------------------------------------------------------------------------------------



 KPOINTS: KPOINTS created by Atomic Simulation Env

Automatic generation of k-mesh.
 Grid dimensions read from file:
 generate k-points for:    1    1    1

 Generating k-lattice:

  Cartesian coordinates                     Fractional coordinates (reciprocal lattice)
     0.047306258  0.000000000  0.000000000     1.000000000  0.000000000  0.000000000
     0.000000000  0.047306258  0.000000000     0.000000000  1.000000000  0.000000000
     0.000000000  0.000000000  0.045220457     0.000000000  0.000000000  1.000000000

  Length of vectors
     0.047306258  0.047306258  0.045220457

  Shift w.r.t. Gamma in fractional coordinates (k-lattice)
     0.000000000  0.000000000  0.000000000

 
 Subroutine IBZKPT returns following result:
 ===========================================
 
 Found      1 irreducible k-points:
 
 Following reciprocal coordinates:
            Coordinates               Weight
  0.000000  0.000000  0.000000      1.000000
 
 Following cartesian coordinates:
            Coordinates               Weight
  0.000000  0.000000  0.000000      1.000000
 


--------------------------------------------------------------------------------------------------------




 Dimension of arrays:
   k-points           NKPTS =      1   k-points in BZ     NKDIM =      1   number of bands    NBANDS=    128
   number of dos      NEDOS =    301   number of ions     NIONS =      2
   non local maximal  LDIM  =      6   non local SUM 2l+1 LMDIM =     18
   total plane-waves  NPLWV = ******
   max r-space proj   IRMAX =   6628   max aug-charges    IRDMAX=  12805
   dimension x,y,z NGX =   160 NGY =  160 NGZ =  168
   dimension x,y,z NGXF=   320 NGYF=  320 NGZF=  336
   support grid    NGXF=   320 NGYF=  320 NGZF=  336
   ions per type =               2
   NGX,Y,Z   is equivalent  to a cutoff of  12.58, 12.58, 12.63 a.u.
   NGXF,Y,Z  is equivalent  to a cutoff of  25.17, 25.17, 25.26 a.u.

 SYSTEM =  MgO-rocksalt                            
 POSCAR =  Cu                                      

 Startparameter for this run:
   NWRITE =      2    write-flag & timer
   PREC   = accura    normal or accurate (medium, high low for compatibility)
   ISTART =      0    job   : 0-new  1-cont  2-samecut
   ICHARG =      2    charge: 1-file 2-atom 10-const
   ISPIN  =      1    spin polarized calculation?
   LNONCOLLINEAR =      F non collinear calculations
   LSORBIT =      F    spin-orbit coupling
   INIWAV =      1    electr: 0-lowe 1-rand  2-diag
   LASPH  =      T    aspherical Exc in radial PAW
 Electronic Relaxation 1
   ENCUT  =  520.0 eV  38.22 Ry    6.18 a.u.  39.30 39.30 41.12*2*pi/ulx,y,z
   ENINI  =  520.0     initial cutoff
   ENAUG  =  587.0 eV  augmentation charge cutoff
   NELM   =    200;   NELMIN=  8; NELMDL= -5     # of ELM steps 
   EDIFF  = 0.1E-05   stopping-criterion for ELM
   LREAL  =      T    real-space projection
   NLSPLINE    = F    spline interpolate recip. space projectors
   LCOMPAT=      F    compatible to vasp.4.4
   GGA_COMPAT  = T    GGA compatible to vasp.4.4-vasp.4.6
   LMAXPAW     = -100 max onsite density
   LMAXMIX     =    2 max onsite mixed and CHGCAR
   VOSKOWN=      0    Vosko Wilk Nusair interpolation
   ROPT   =   -0.00025
 Ionic relaxation
   EDIFFG = 0.1E-04   stopping-criterion for IOM
   NSW    =      0    number of steps for IOM
   NBLOCK =      1;   KBLOCK =      1    inner block; outer block 
   IBRION =     -1    ionic relax: 0-MD 1-quasi-New 2-CG
   NFREE  =      0    steps in history (QN), initial steepest desc. (CG)
   ISIF   =      2    stress and relaxation
   IWAVPR =     10    prediction:  0-non 1-charg 2-wave 3-comb
   ISYM   =      2    0-nonsym 1-usesym 2-fastsym
   LCORR  =      T    Harris-Foulkes like correction to forces

   POTIM  = 0.5000    time-step for ionic-motion
   TEIN   =    0.0    initial temperature
   TEBEG  =    0.0;   TEEND  =   0.0 temperature during run
   SMASS  =  -3.00    Nose mass-parameter (am)
   estimated Nose-frequenzy (Omega)   =  0.10E-29 period in steps = 0.13E+47 mass=  -0.102E-25a.u.
   SCALEE = 1.0000    scale energy and forces
   NPACO  =    256;   APACO  = 10.0  distance and # of slots for P.C.
   PSTRESS=    0.0 pullay stress

  Mass of Ions in am
   POMASS =  63.55
  Ionic Valenz
   ZVAL   =  11.00
  Atomic Wigner-Seitz radii
   RWIGS  =  -1.00
  virtual crystal weights 
   VCA    =   1.00
   NELECT =      22.0000    total number of electrons
   NUPDOWN=      -1.0000    fix difference up-down

 DOS related values:
   EMIN   =  10.00;   EMAX   =-10.00  energy-range for DOS
   EFERMI =   0.00
   ISMEAR =     0;   SIGMA  =   0.05  broadening in eV -4-tet -1-fermi 0-gaus

 Electronic relaxation 2 (details)
   IALGO  =     58    algorithm
   LDIAG  =      T    sub-space diagonalisation (order eigenvalues)
   LSUBROT=      F    optimize rotation matrix (better conditioning)
   TURBO    =      0    0=normal 1=particle mesh
   IRESTART =      0    0=no restart 2=restart with 2 vectors
   NREBOOT  =      0    no. of reboots
   NMIN     =      0    reboot dimension
   EREF     =   0.00    reference energy to select bands
   IMIX   =      4    mixing-type and parameters
     AMIX     =   0.40;   BMIX     =  1.00
     AMIX_MAG =   1.60;   BMIX_MAG =  1.00
     AMIN     =   0.10
     WC   =   100.;   INIMIX=   1;  MIXPRE=   1;  MAXMIX= -45

 Intra band minimization:
   WEIMIN = 0.0000     energy-eigenvalue tresh-hold
   EBREAK =  0.20E-08  absolut break condition
   DEPER  =   0.30     relativ break condition  

   TIME   =   0.40     timestep for ELM

  volume/ion in A,a.u.               =    4940.81     33342.21
  Fermi-wavevector in a.u.,A,eV,Ry     =   0.213767  0.403960  0.621734  0.045696
  Thomas-Fermi vector in A             =   0.985879

 Write flags
   LWAVE        =      F    write WAVECAR
   LDOWNSAMPLE  =      F    k-point downsampling of WAVECAR
   LCHARG       =      F    write CHGCAR
   LVTOT        =      F    write LOCPOT, total local potential
   LVHAR        =      F    write LOCPOT, Hartree potential only
   LELF         =      F    write electronic localiz. function (ELF)
   LORBIT       =      0    0 simple, 1 ext, 2 COOP (PROOUT), +10 PAW based schemes


 Dipole corrections
   LMONO  =      F    monopole corrections only (constant potential shift)
   LDIPOL =      T    correct potential (dipole corrections)
   IDIPOL =      3    1-x, 2-y, 3-z, 4-all directions 
   EPSILON=  1.0000000 bulk dielectric constant

 Exchange correlation treatment:
   GGA     =    --    GGA type
   LEXCH   =     8    internal setting for exchange type
   LIBXC   =     F    Libxc                    
   VOSKOWN =     0    Vosko Wilk Nusair interpolation
   LHFCALC =     F    Hartree Fock is set to
   LHFONE  =     F    Hartree Fock one center treatment
   AEXX    =    0.0000 exact exchange contribution

 Linear response parameters
   LEPSILON=     F    determine dielectric tensor
   LRPA    =     F    only Hartree local field effects (RPA)
   LNABLA  =     F    use nabla operator in PAW spheres
   LVEL    =     F    velocity operator in full k-point grid
   CSHIFT  =0.1000    complex shift for real part using Kramers Kronig
   OMEGAMAX=  -1.0    maximum frequency
   DEG_THRESHOLD= 0.2000000E-02 threshold for treating states as degnerate
   RTIME   =   -0.100 relaxation time in fs
  (WPLASMAI=    0.000 imaginary part of plasma frequency in eV, 0.658/RTIME)
   DFIELD  = 0.0000000 0.0000000 0.0000000 field for delta impulse in time

  Optional k-point grid parameters
   LKPOINTS_OPT  =     F    use optional k-point grid
   KPOINTS_OPT_MODE=     1    mode for optional k-point grid

 Orbital magnetization related:
   ORBITALMAG=     F  switch on orbital magnetization
   LCHIMAG   =     F  perturbation theory with respect to B field
   DQ        =  0.001000  dq finite difference perturbation B field
   LLRAUG    =     F  two centre corrections for induced B field



--------------------------------------------------------------------------------------------------------


 Static calculation
 charge density and potential will be updated during run
 non-spin polarized calculation
 Conjugate gradient for all bands (Freysoldt, et al. PRB 79, 241103 (2009))
 preconditioned conjugated gradient                                        
 perform sub-space diagonalisation
    before iterative eigenvector-optimisation
 modified Broyden-mixing scheme, WC =      100.0
 initial mixing is a Kerker type mixing with AMIX =  0.4000 and BMIX =      1.0000
 Hartree-type preconditioning will be used
 using additional bands          117
 real space projection scheme for non local part
 use partial core corrections
 no Harris-corrections to forces 
 use gradient corrections 
 use of overlap-Matrix (Vanderbilt PP)
 Gauss-broadening in eV      SIGMA  =   0.05


--------------------------------------------------------------------------------------------------------


  energy-cutoff  :      520.00
  volume of cell :     9881.61
      direct lattice vectors                 reciprocal lattice vectors
    21.138852197  0.000000000  0.000000000     0.047306258  0.000000000  0.000000000
     0.000000000 21.138852197  0.000000000     0.000000000  0.047306258  0.000000000
     0.000000000  0.000000000 22.113885220     0.000000000  0.000000000  0.045220457

  length of vectors
    21.138852197 21.138852197 22.113885220     0.047306258  0.047306258  0.045220457



 k-points in units of 2pi/SCALE and weight: KPOINTS created by Atomic Simulation Env
   0.00000000  0.00000000  0.00000000       1.000

 k-points in reciprocal lattice and weights: KPOINTS created by Atomic Simulation Env
   0.00000000  0.00000000  0.00000000       1.000

 position of ions in fractional coordinates (direct lattice) 
   0.50000000  0.50000000  0.69097890
   0.50000000  0.50000000  0.59041324

 position of ions in cartesian coordinates  (Angst):
  10.56942610 10.56942610 15.28022811
  10.56942610 10.56942610 13.05633072



--------------------------------------------------------------------------------------------------------


 k-point   1 :   0.0000 0.0000 0.0000  plane waves:  265979

 maximum and minimum number of plane-waves per node :     66495    66494

 maximum number of plane-waves:    265979
 maximum index in each direction: 
   IXMAX=   39   IYMAX=   39   IZMAX=   41
   IXMIN=  -39   IYMIN=  -39   IZMIN=  -41


 real space projection operators:
  total allocation   :       1803.09 KBytes
  max/ min on nodes  :        452.53        445.78


 parallel 3D FFT for wavefunctions:
    minimum data exchange during FFTs selected (reduces bandwidth)
 parallel 3D FFT for charge:
    minimum data exchange during FFTs selected (reduces bandwidth)


 total amount of memory used by VASP MPI-rank0   152867. kBytes
=======================================================================

   base      :      30000. kBytes
   nonlr-proj:        772. kBytes
   fftplans  :      35317. kBytes
   grid      :      83562. kBytes
   one-center:         15. kBytes
   wavefun   :       3201. kBytes

     INWAV:  cpu time      0.0000: real time      0.0000
 Broyden mixing: mesh for mixing (old mesh)
   NGX = 79   NGY = 79   NGZ = 83
  (NGX  =320   NGY  =320   NGZ  =336)
  gives a total of 518003 points

 initial charge density was supplied:
 charge density of overlapping atoms calculated
 number of electron      22.0000000 magnetization 
 keeping initial charge density in first step


--------------------------------------------------------------------------------------------------------


 Maximum index for non-local projection operator         1585
 Maximum index for augmentation-charges            0 (set IRDMAX)


--------------------------------------------------------------------------------------------------------


 First call to EWALD:  gamma=   0.083
 Maximum number of real-space cells 3x 3x 3
 Maximum number of reciprocal cells 3x 3x 3

    FEWALD:  cpu time      0.0006: real time      0.0006


--------------------------------------- Iteration      1(   1)  ---------------------------------------


    POTLOK:  cpu time      0.3895: real time      0.3900
    SETDIJ:  cpu time      0.4034: real time      0.4036
    TRIAL :  cpu time      1.6804: real time      1.6820
    CORREC:  cpu time      0.0010: real time      0.0010
    --------------------------------------------
      LOOP:  cpu time      2.4761: real time      2.4784

 eigenvalue-minimisations  :   256
 total energy-change (2. order) : 0.1051136E+03  (-0.4793568E+03)
 number of electron      22.0000000 magnetization 
 augmentation part       22.0000000 magnetization 

 DIPCOR: dipole corrections for dipol
 direction  3 min pos     1,
 dipolmoment           0.000000      0.000000     -0.000048 electrons x Angstroem
 Tr[quadrupol]     -4914.759010

 energy correction for charged system         0.000000 eV
 dipol+quadrupol energy correction           -0.000000 eV
 added-field ion interaction          0.000065 eV  (added to PSCEN)


 Free energy of the ion-electron system (eV)
  ---------------------------------------------------
  alpha Z        PSCENC =         0.29610132
  Ewald energy   TEWEN  =       324.65222073
  -Hartree energ DENC   =     -2866.75084264
  -exchange      EXHF   =         0.00000000
  -V(xc)+E(xc)   XCENC  =       108.39063549
  PAW double counting   =      2435.34765495    -2668.56901033
  entropy T*S    EENTRO =        -0.05514228
  eigenvalues    EBANDS =       -10.15209768
  atomic energy  EATOM  =      2781.95410799
  ---------------------------------------------------
  free energy    TOTEN  =       105.11362755 eV

  energy without entropy =      105.16876982  energy(sigma->0) =      105.14119868


--------------------------------------------------------------------------------------------------------




--------------------------------------- Iteration      1(   2)  ---------------------------------------


    TRIAL :  cpu time      1.6326: real time      1.6329
    CORREC:  cpu time      0.0003: real time      0.0003
    --------------------------------------------
      LOOP:  cpu time      1.6374: real time      1.6457

 eigenvalue-minimisations  :   256
 total energy-change (2. order) :-0.1246571E+03  (-0.1233827E+03)
 number of electron      22.0000000 magnetization 
 augmentation part       22.0000000 magnetization 

 DIPCOR: dipole corrections for dipol
 direction  3 min pos     1,
 dipolmoment           0.000000      0.000000     -0.000048 electrons x Angstroem
 Tr[quadrupol]     -4914.759010

 energy correction for charged system         0.000000 eV
 dipol+quadrupol energy correction           -0.000000 eV
 added-field ion interaction          0.000065 eV  (added to PSCEN)


 Free energy of the ion-electron system (eV)
  ---------------------------------------------------
  alpha Z        PSCENC =         0.29610132
  Ewald energy   TEWEN  =       324.65222073
  -Hartree energ DENC   =     -2866.75084264
  -exchange      EXHF   =         0.00000000
  -V(xc)+E(xc)   XCENC  =       108.39063549
  PAW double counting   =      2435.34765495    -2668.56901033
  entropy T*S    EENTRO =        -0.00000000
  eigenvalues    EBANDS =      -134.86430307
  atomic energy  EATOM  =      2781.95410799
  ---------------------------------------------------
  free energy    TOTEN  =       -19.54343557 eV

  energy without entropy =      -19.54343557  energy(sigma->0) =      -19.54343557


--------------------------------------------------------------------------------------------------------




--------------------------------------- Iteration      1(   3)  ---------------------------------------


    TRIAL :  cpu time      2.5322: real time      2.5326
    CORREC:  cpu time      0.0003: real time      0.0003
    --------------------------------------------
      LOOP:  cpu time      2.5360: real time      2.5450

 eigenvalue-minimisations  :   384
 total energy-change (2. order) :-0.1232827E+01  (-0.1232827E+01)
 number of electron      22.0000000 magnetization 
 augmentation part       22.0000000 magnetization 

 DIPCOR: dipole corrections for dipol
 direction  3 min pos     1,
 dipolmoment           0.000000      0.000000     -0.000048 electrons x Angstroem
 Tr[quadrupol]     -4914.759010

 energy correction for charged system         0.000000 eV
 dipol+quadrupol energy correction           -0.000000 eV
 added-field ion interaction          0.000065 eV  (added to PSCEN)


 Free energy of the ion-electron system (eV)
  ---------------------------------------------------
  alpha Z        PSCENC =         0.29610132
  Ewald energy   TEWEN  =       324.65222073
  -Hartree energ DENC   =     -2866.75084264
  -exchange      EXHF   =         0.00000000
  -V(xc)+E(xc)   XCENC  =       108.39063549
  PAW double counting   =      2435.34765495    -2668.56901033
  entropy T*S    EENTRO =        -0.00000000
  eigenvalues    EBANDS =      -136.09712999
  atomic energy  EATOM  =      2781.95410799
  ---------------------------------------------------
  free energy    TOTEN  =       -20.77626248 eV

  energy without entropy =      -20.77626248  energy(sigma->0) =      -20.77626248


--------------------------------------------------------------------------------------------------------




--------------------------------------- Iteration      1(   4)  ---------------------------------------


    TRIAL :  cpu time      1.6225: real time      1.6230
    CORREC:  cpu time      0.0004: real time      0.0004
    --------------------------------------------
      LOOP:  cpu time      1.6349: real time      1.6356

 eigenvalue-minimisations  :   256
 total energy-change (2. order) :-0.5331773E-03  (-0.5331772E-03)
 number of electron      22.0000000 magnetization 
 augmentation part       22.0000000 magnetization 

 DIPCOR: dipole corrections for dipol
 direction  3 min pos     1,
 dipolmoment           0.000000      0.000000     -0.000048 electrons x Angstroem
 Tr[quadrupol]     -4914.759010

 energy correction for charged system         0.000000 eV
 dipol+quadrupol energy correction           -0.000000 eV
 added-field ion interaction          0.000065 eV  (added to PSCEN)


 Free energy of the ion-electron system (eV)
  ---------------------------------------------------
  alpha Z        PSCENC =         0.29610132
  Ewald energy   TEWEN  =       324.65222073
  -Hartree energ DENC   =     -2866.75084264
  -exchange      EXHF   =         0.00000000
  -V(xc)+E(xc)   XCENC  =       108.39063549
  PAW double counting   =      2435.34765495    -2668.56901033
  entropy T*S    EENTRO =        -0.00000000
  eigenvalues    EBANDS =      -136.09766316
  atomic energy  EATOM  =      2781.95410799
  ---------------------------------------------------
  free energy    TOTEN  =       -20.77679566 eV

  energy without entropy =      -20.77679566  energy(sigma->0) =      -20.77679566


--------------------------------------------------------------------------------------------------------




--------------------------------------- Iteration      1(   5)  ---------------------------------------


    TRIAL :  cpu time      3.8512: real time      3.8521
    CORREC:  cpu time      0.0003: real time      0.0003
    CHARGE:  cpu time      4.4234: real time      4.4250
    --------------------------------------------
      LOOP:  cpu time      8.2793: real time      8.2900

 eigenvalue-minimisations  :   512
 total energy-change (2. order) :-0.6224393E-05  (-0.6223659E-05)
 number of electron      22.0000041 magnetization 
 augmentation part       13.9771656 magnetization 

 DIPCOR: dipole corrections for dipol
 direction  3 min pos     1,
 dipolmoment           0.000000      0.000000     -0.000048 electrons x Angstroem
 Tr[quadrupol]     -4914.759010

 energy correction for charged system         0.000000 eV
 dipol+quadrupol energy correction           -0.000000 eV
 added-field ion interaction          0.000065 eV  (added to PSCEN)


 Free energy of the ion-electron system (eV)
  ---------------------------------------------------
  alpha Z        PSCENC =         0.29610132
  Ewald energy   TEWEN  =       324.65222073
  -Hartree energ DENC   =     -2866.75084264
  -exchange      EXHF   =         0.00000000
  -V(xc)+E(xc)   XCENC  =       108.39063549
  PAW double counting   =      2435.34765495    -2668.56901033
  entropy T*S    EENTRO =        -0.00000000
  eigenvalues    EBANDS =      -136.09766939
  atomic energy  EATOM  =      2781.95410799
  ---------------------------------------------------
  free energy    TOTEN  =       -20.77680188 eV

  energy without entropy =      -20.77680188  energy(sigma->0) =      -20.77680188


--------------------------------------------------------------------------------------------------------




--------------------------------------- Iteration      1(   6)  ---------------------------------------


    POTLOK:  cpu time      0.3161: real time      0.3162
    SETDIJ:  cpu time      0.3917: real time      0.3917
    TRIAL :  cpu time      6.3261: real time      6.3275
    CORREC:  cpu time      5.4619: real time      5.4635
    CHARGE:  cpu time      4.4271: real time      4.4277
    --------------------------------------------
      LOOP:  cpu time     16.9451: real time     16.9490

 eigenvalue-minimisations  :     0
 total energy-change (2. order) : 0.5697779E+01  (-0.7987874E+00)
 number of electron      22.0000042 magnetization 
 augmentation part       14.3294891 magnetization 

 DIPCOR: dipole corrections for dipol
 direction  3 min pos     1,
 dipolmoment           0.000000      0.000000     -0.004364 electrons x Angstroem
 Tr[quadrupol]     -4917.225163

 energy correction for charged system         0.000000 eV
 dipol+quadrupol energy correction           -0.000000 eV
 added-field ion interaction          0.005911 eV  (added to PSCEN)


 Free energy of the ion-electron system (eV)
  ---------------------------------------------------
  alpha Z        PSCENC =         0.29601788
  Ewald energy   TEWEN  =       324.65222073
  -Hartree energ DENC   =     -2852.47261152
  -exchange      EXHF   =         0.00000000
  -V(xc)+E(xc)   XCENC  =       107.78073971
  PAW double counting   =      2550.44002645    -2775.88421197
  entropy T*S    EENTRO =        -0.00000000
  eigenvalues    EBANDS =      -151.84531208
  atomic energy  EATOM  =      2781.95410799
  ---------------------------------------------------
  free energy    TOTEN  =       -15.07902282 eV

  energy without entropy =      -15.07902282  energy(sigma->0) =      -15.07902282


--------------------------------------------------------------------------------------------------------




--------------------------------------- Iteration      1(   7)  ---------------------------------------


    POTLOK:  cpu time      0.3130: real time      0.3130
    SETDIJ:  cpu time      0.3904: real time      0.3908
    TRIAL :  cpu time      1.2248: real time      1.2251
    CORREC:  cpu time      5.4505: real time      5.4516
    CHARGE:  cpu time      4.4588: real time      4.4598
    --------------------------------------------
      LOOP:  cpu time     11.8414: real time     11.8526

 eigenvalue-minimisations  :     0
 total energy-change (2. order) :-0.7545649E+00  (-0.2320687E+00)
 number of electron      22.0000042 magnetization 
 augmentation part       14.2748208 magnetization 

 DIPCOR: dipole corrections for dipol
 direction  3 min pos     1,
 dipolmoment           0.000000      0.000000     -0.000633 electrons x Angstroem
 Tr[quadrupol]     -4916.987065

 energy correction for charged system         0.000000 eV
 dipol+quadrupol energy correction           -0.000000 eV
 added-field ion interaction          0.000858 eV  (added to PSCEN)


 Free energy of the ion-electron system (eV)
  ---------------------------------------------------
  alpha Z        PSCENC =         0.29653170
  Ewald energy   TEWEN  =       324.65222073
  -Hartree energ DENC   =     -2895.08608464
  -exchange      EXHF   =         0.00000000
  -V(xc)+E(xc)   XCENC  =       109.77540308
  PAW double counting   =      2572.42491380    -2811.20443879
  entropy T*S    EENTRO =        -0.00000000
  eigenvalues    EBANDS =       -98.64624162
  atomic energy  EATOM  =      2781.95410799
  ---------------------------------------------------
  free energy    TOTEN  =       -15.83358776 eV

  energy without entropy =      -15.83358776  energy(sigma->0) =      -15.83358776


--------------------------------------------------------------------------------------------------------




--------------------------------------- Iteration      1(   8)  ---------------------------------------


    POTLOK:  cpu time      0.3167: real time      0.3167
    SETDIJ:  cpu time      0.3872: real time      0.3873
    TRIAL :  cpu time      1.2360: real time      1.2363
    CORREC:  cpu time      5.4165: real time      5.4174
    CHARGE:  cpu time      4.4010: real time      4.4019
    --------------------------------------------
      LOOP:  cpu time     11.7695: real time     11.7719

 eigenvalue-minimisations  :     0
 total energy-change (2. order) :-0.2317870E+00  (-0.3445860E-01)
 number of electron      22.0000042 magnetization 
 augmentation part       14.3423278 magnetization 

 DIPCOR: dipole corrections for dipol
 direction  3 min pos     1,
 dipolmoment           0.000000      0.000000     -0.000789 electrons x Angstroem
 Tr[quadrupol]     -4916.691250

 energy correction for charged system         0.000000 eV
 dipol+quadrupol energy correction           -0.000000 eV
 added-field ion interaction          0.001068 eV  (added to PSCEN)


 Free energy of the ion-electron system (eV)
  ---------------------------------------------------
  alpha Z        PSCENC =         0.29719477
  Ewald energy   TEWEN  =       324.65222073
  -Hartree energ DENC   =     -2876.25062823
  -exchange      EXHF   =         0.00000000
  -V(xc)+E(xc)   XCENC  =       109.15673479
  PAW double counting   =      2550.76795159    -2786.29587833
  entropy T*S    EENTRO =        -0.00000000
  eigenvalues    EBANDS =      -120.34707806
  atomic energy  EATOM  =      2781.95410799
  ---------------------------------------------------
  free energy    TOTEN  =       -16.06537475 eV

  energy without entropy =      -16.06537475  energy(sigma->0) =      -16.06537475


--------------------------------------------------------------------------------------------------------




--------------------------------------- Iteration      1(   9)  ---------------------------------------


    POTLOK:  cpu time      0.3153: real time      0.3153
    SETDIJ:  cpu time      0.3884: real time      0.3884
    TRIAL :  cpu time      1.2233: real time      1.2237
    CORREC:  cpu time      5.4030: real time      5.4042
    CHARGE:  cpu time      4.4382: real time      4.4396
    --------------------------------------------
      LOOP:  cpu time     11.7735: real time     11.7834

 eigenvalue-minimisations  :     0
 total energy-change (2. order) :-0.3411769E-01  (-0.2968607E-01)
 number of electron      22.0000042 magnetization 
 augmentation part       14.3146664 magnetization 

 DIPCOR: dipole corrections for dipol
 direction  3 min pos     1,
 dipolmoment           0.000000      0.000000     -0.000400 electrons x Angstroem
 Tr[quadrupol]     -4916.637627

 energy correction for charged system         0.000000 eV
 dipol+quadrupol energy correction           -0.000000 eV
 added-field ion interaction          0.000542 eV  (added to PSCEN)


 Free energy of the ion-electron system (eV)
  ---------------------------------------------------
  alpha Z        PSCENC =         0.29714490
  Ewald energy   TEWEN  =       324.65222073
  -Hartree energ DENC   =     -2884.23999826
  -exchange      EXHF   =         0.00000000
  -V(xc)+E(xc)   XCENC  =       109.54164576
  PAW double counting   =      2554.96536646    -2792.89918673
  entropy T*S    EENTRO =        -0.00000000
  eigenvalues    EBANDS =      -110.37079329
  atomic energy  EATOM  =      2781.95410799
  ---------------------------------------------------
  free energy    TOTEN  =       -16.09949244 eV

  energy without entropy =      -16.09949244  energy(sigma->0) =      -16.09949244


--------------------------------------------------------------------------------------------------------




--------------------------------------- Iteration      1(  10)  ---------------------------------------


    POTLOK:  cpu time      0.3169: real time      0.3169
    SETDIJ:  cpu time      0.3893: real time      0.3894
    TRIAL :  cpu time      1.2253: real time      1.2257
    CORREC:  cpu time      5.4000: real time      5.4012
    CHARGE:  cpu time      4.4340: real time      4.4356
    --------------------------------------------
      LOOP:  cpu time     11.7698: real time     11.7809

 eigenvalue-minimisations  :     0
 total energy-change (2. order) :-0.2978856E-01  (-0.1072870E-01)
 number of electron      22.0000042 magnetization 
 augmentation part       14.3446092 magnetization 

 DIPCOR: dipole corrections for dipol
 direction  3 min pos     1,
 dipolmoment           0.000000      0.000000     -0.000142 electrons x Angstroem
 Tr[quadrupol]     -4916.583097

 energy correction for charged system         0.000000 eV
 dipol+quadrupol energy correction           -0.000000 eV
 added-field ion interaction          0.000193 eV  (added to PSCEN)


 Free energy of the ion-electron system (eV)
  ---------------------------------------------------
  alpha Z        PSCENC =         0.29650196
  Ewald energy   TEWEN  =       324.65222073
  -Hartree energ DENC   =     -2880.66151307
  -exchange      EXHF   =         0.00000000
  -V(xc)+E(xc)   XCENC  =       109.38176132
  PAW double counting   =      2552.89069615    -2789.38473372
  entropy T*S    EENTRO =        -0.00000000
  eigenvalues    EBANDS =      -115.25832235
  atomic energy  EATOM  =      2781.95410799
  ---------------------------------------------------
  free energy    TOTEN  =       -16.12928100 eV

  energy without entropy =      -16.12928100  energy(sigma->0) =      -16.12928100


--------------------------------------------------------------------------------------------------------




--------------------------------------- Iteration      1(  11)  ---------------------------------------


    POTLOK:  cpu time      0.3132: real time      0.3134
    SETDIJ:  cpu time      0.3930: real time      0.3931
    TRIAL :  cpu time      1.2319: real time      1.2322
    CORREC:  cpu time      5.3936: real time      5.3952
    CHARGE:  cpu time      4.4289: real time      4.4298
    --------------------------------------------
      LOOP:  cpu time     11.7645: real time     11.7758

 eigenvalue-minimisations  :     0
 total energy-change (2. order) :-0.1084602E-01  (-0.4232855E-02)
 number of electron      22.0000042 magnetization 
 augmentation part       14.3267213 magnetization 

 DIPCOR: dipole corrections for dipol
 direction  3 min pos     1,
 dipolmoment           0.000000      0.000000      0.000002 electrons x Angstroem
 Tr[quadrupol]     -4916.500038

 energy correction for charged system         0.000000 eV
 dipol+quadrupol energy correction           -0.000000 eV
 added-field ion interaction         -0.000003 eV  (added to PSCEN)


 Free energy of the ion-electron system (eV)
  ---------------------------------------------------
  alpha Z        PSCENC =         0.29614203
  Ewald energy   TEWEN  =       324.65222073
  -Hartree energ DENC   =     -2884.20158101
  -exchange      EXHF   =         0.00000000
  -V(xc)+E(xc)   XCENC  =       109.54989012
  PAW double counting   =      2554.03762278    -2791.43397673
  entropy T*S    EENTRO =        -0.00000000
  eigenvalues    EBANDS =      -110.99455291
  atomic energy  EATOM  =      2781.95410799
  ---------------------------------------------------
  free energy    TOTEN  =       -16.14012701 eV

  energy without entropy =      -16.14012701  energy(sigma->0) =      -16.14012701


--------------------------------------------------------------------------------------------------------




--------------------------------------- Iteration      1(  12)  ---------------------------------------


    POTLOK:  cpu time      0.3106: real time      0.3106
    SETDIJ:  cpu time      0.3926: real time      0.3927
    TRIAL :  cpu time      1.2260: real time      1.2263
    CORREC:  cpu time      5.3966: real time      5.3981
    CHARGE:  cpu time      4.4286: real time      4.4296
    --------------------------------------------
      LOOP:  cpu time     11.7603: real time     11.7696

 eigenvalue-minimisations  :     0
 total energy-change (2. order) :-0.4255492E-02  (-0.1722855E-02)
 number of electron      22.0000042 magnetization 
 augmentation part       14.3376675 magnetization 

 DIPCOR: dipole corrections for dipol
 direction  3 min pos     1,
 dipolmoment           0.000000      0.000000      0.000004 electrons x Angstroem
 Tr[quadrupol]     -4916.515038

 energy correction for charged system         0.000000 eV
 dipol+quadrupol energy correction           -0.000000 eV
 added-field ion interaction         -0.000006 eV  (added to PSCEN)


 Free energy of the ion-electron system (eV)
  ---------------------------------------------------
  alpha Z        PSCENC =         0.29604653
  Ewald energy   TEWEN  =       324.65222073
  -Hartree energ DENC   =     -2881.33542235
  -exchange      EXHF   =         0.00000000
  -V(xc)+E(xc)   XCENC  =       109.42658189
  PAW double counting   =      2551.56281193    -2788.13120868
  entropy T*S    EENTRO =        -0.00000000
  eigenvalues    EBANDS =      -114.56952055
  atomic energy  EATOM  =      2781.95410799
  ---------------------------------------------------
  free energy    TOTEN  =       -16.14438251 eV

  energy without entropy =      -16.14438251  energy(sigma->0) =      -16.14438251


--------------------------------------------------------------------------------------------------------




--------------------------------------- Iteration      1(  13)  ---------------------------------------


    POTLOK:  cpu time      0.3143: real time      0.3143
    SETDIJ:  cpu time      0.3918: real time      0.3919
    TRIAL :  cpu time      1.2221: real time      1.2225
    CORREC:  cpu time      5.3951: real time      5.3965
    CHARGE:  cpu time      4.4445: real time      4.4455
    --------------------------------------------
      LOOP:  cpu time     11.7723: real time     11.7829

 eigenvalue-minimisations  :     0
 total energy-change (2. order) :-0.1709444E-02  (-0.4500762E-03)
 number of electron      22.0000042 magnetization 
 augmentation part       14.3308941 magnetization 

 DIPCOR: dipole corrections for dipol
 direction  3 min pos     1,
 dipolmoment           0.000000      0.000000      0.000009 electrons x Angstroem
 Tr[quadrupol]     -4916.487750

 energy correction for charged system         0.000000 eV
 dipol+quadrupol energy correction           -0.000000 eV
 added-field ion interaction         -0.000013 eV  (added to PSCEN)


 Free energy of the ion-electron system (eV)
  ---------------------------------------------------
  alpha Z        PSCENC =         0.29602395
  Ewald energy   TEWEN  =       324.65222073
  -Hartree energ DENC   =     -2882.16381031
  -exchange      EXHF   =         0.00000000
  -V(xc)+E(xc)   XCENC  =       109.46882021
  PAW double counting   =      2551.69487474    -2788.65046094
  entropy T*S    EENTRO =        -0.00000000
  eigenvalues    EBANDS =      -113.39786831
  atomic energy  EATOM  =      2781.95410799
  ---------------------------------------------------
  free energy    TOTEN  =       -16.14609195 eV

  energy without entropy =      -16.14609195  energy(sigma->0) =      -16.14609195


--------------------------------------------------------------------------------------------------------




--------------------------------------- Iteration      1(  14)  ---------------------------------------


    POTLOK:  cpu time      0.3150: real time      0.3150
    SETDIJ:  cpu time      0.3911: real time      0.3911
    TRIAL :  cpu time      1.2209: real time      1.2216
    CORREC:  cpu time      5.3991: real time      5.4007
    CHARGE:  cpu time      4.3881: real time      4.3890
    --------------------------------------------
      LOOP:  cpu time     11.7262: real time     11.7296

 eigenvalue-minimisations  :     0
 total energy-change (2. order) :-0.4625452E-03  (-0.2158704E-03)
 number of electron      22.0000042 magnetization 
 augmentation part       14.3351018 magnetization 

 DIPCOR: dipole corrections for dipol
 direction  3 min pos     1,
 dipolmoment           0.000000      0.000000      0.000012 electrons x Angstroem
 Tr[quadrupol]     -4916.495121

 energy correction for charged system         0.000000 eV
 dipol+quadrupol energy correction           -0.000000 eV
 added-field ion interaction         -0.000016 eV  (added to PSCEN)


 Free energy of the ion-electron system (eV)
  ---------------------------------------------------
  alpha Z        PSCENC =         0.29602206
  Ewald energy   TEWEN  =       324.65222073
  -Hartree energ DENC   =     -2881.04754620
  -exchange      EXHF   =         0.00000000
  -V(xc)+E(xc)   XCENC  =       109.41993775
  PAW double counting   =      2550.96784625    -2787.64449216
  entropy T*S    EENTRO =        -0.00000000
  eigenvalues    EBANDS =      -114.74465092
  atomic energy  EATOM  =      2781.95410799
  ---------------------------------------------------
  free energy    TOTEN  =       -16.14655449 eV

  energy without entropy =      -16.14655449  energy(sigma->0) =      -16.14655449


--------------------------------------------------------------------------------------------------------




--------------------------------------- Iteration      1(  15)  ---------------------------------------


    POTLOK:  cpu time      0.3165: real time      0.3166
    SETDIJ:  cpu time      0.3879: real time      0.3879
    TRIAL :  cpu time      1.2195: real time      1.2198
    CORREC:  cpu time      5.3944: real time      5.3964
    CHARGE:  cpu time      4.3849: real time      4.3858
    --------------------------------------------
      LOOP:  cpu time     11.7099: real time     11.7188

 eigenvalue-minimisations  :     0
 total energy-change (2. order) :-0.1803502E-03  (-0.5792887E-04)
 number of electron      22.0000042 magnetization 
 augmentation part       14.3325986 magnetization 

 DIPCOR: dipole corrections for dipol
 direction  3 min pos     1,
 dipolmoment           0.000000      0.000000      0.000011 electrons x Angstroem
 Tr[quadrupol]     -4916.493369

 energy correction for charged system         0.000000 eV
 dipol+quadrupol energy correction           -0.000000 eV
 added-field ion interaction         -0.000015 eV  (added to PSCEN)


 Free energy of the ion-electron system (eV)
  ---------------------------------------------------
  alpha Z        PSCENC =         0.29601958
  Ewald energy   TEWEN  =       324.65222073
  -Hartree energ DENC   =     -2881.54429042
  -exchange      EXHF   =         0.00000000
  -V(xc)+E(xc)   XCENC  =       109.44294664
  PAW double counting   =      2551.65917381    -2788.48178072
  entropy T*S    EENTRO =        -0.00000000
  eigenvalues    EBANDS =      -114.12513244
  atomic energy  EATOM  =      2781.95410799
  ---------------------------------------------------
  free energy    TOTEN  =       -16.14673485 eV

  energy without entropy =      -16.14673485  energy(sigma->0) =      -16.14673485


--------------------------------------------------------------------------------------------------------




--------------------------------------- Iteration      1(  16)  ---------------------------------------


    POTLOK:  cpu time      0.3093: real time      0.3093
    SETDIJ:  cpu time      0.3987: real time      0.3989
    TRIAL :  cpu time      1.2238: real time      1.2245
    CORREC:  cpu time      5.4369: real time      5.4377
    CHARGE:  cpu time      4.3933: real time      4.3935
    --------------------------------------------
      LOOP:  cpu time     11.7703: real time     11.7761

 eigenvalue-minimisations  :     0
 total energy-change (2. order) :-0.6638742E-04  (-0.3228852E-04)
 number of electron      22.0000042 magnetization 
 augmentation part       14.3308281 magnetization 

 DIPCOR: dipole corrections for dipol
 direction  3 min pos     1,
 dipolmoment           0.000000      0.000000      0.000012 electrons x Angstroem
 Tr[quadrupol]     -4916.494632

 energy correction for charged system         0.000000 eV
 dipol+quadrupol energy correction           -0.000000 eV
 added-field ion interaction         -0.000016 eV  (added to PSCEN)


 Free energy of the ion-electron system (eV)
  ---------------------------------------------------
  alpha Z        PSCENC =         0.29602001
  Ewald energy   TEWEN  =       324.65222073
  -Hartree energ DENC   =     -2881.17925489
  -exchange      EXHF   =         0.00000000
  -V(xc)+E(xc)   XCENC  =       109.42675993
  PAW double counting   =      2551.58912541    -2788.30550652
  entropy T*S    EENTRO =        -0.00000000
  eigenvalues    EBANDS =      -114.58027389
  atomic energy  EATOM  =      2781.95410799
  ---------------------------------------------------
  free energy    TOTEN  =       -16.14680123 eV

  energy without entropy =      -16.14680123  energy(sigma->0) =      -16.14680123


--------------------------------------------------------------------------------------------------------




--------------------------------------- Iteration      1(  17)  ---------------------------------------


    POTLOK:  cpu time      0.3108: real time      0.3108
    SETDIJ:  cpu time      0.3986: real time      0.3986
    TRIAL :  cpu time      1.2218: real time      1.2218
    CORREC:  cpu time      5.4768: real time      5.4774
    CHARGE:  cpu time      4.3894: real time      4.3896
    --------------------------------------------
      LOOP:  cpu time     11.8220: real time     11.8231

 eigenvalue-minimisations  :     0
 total energy-change (2. order) :-0.1931815E-04  (-0.2195751E-04)
 number of electron      22.0000042 magnetization 
 augmentation part       14.3325686 magnetization 

 DIPCOR: dipole corrections for dipol
 direction  3 min pos     1,
 dipolmoment           0.000000      0.000000      0.000012 electrons x Angstroem
 Tr[quadrupol]     -4916.497529

 energy correction for charged system         0.000000 eV
 dipol+quadrupol energy correction           -0.000000 eV
 added-field ion interaction         -0.000017 eV  (added to PSCEN)


 Free energy of the ion-electron system (eV)
  ---------------------------------------------------
  alpha Z        PSCENC =         0.29601942
  Ewald energy   TEWEN  =       324.65222073
  -Hartree energ DENC   =     -2880.93078370
  -exchange      EXHF   =         0.00000000
  -V(xc)+E(xc)   XCENC  =       109.41565775
  PAW double counting   =      2551.51128912    -2788.15410354
  entropy T*S    EENTRO =        -0.00000000
  eigenvalues    EBANDS =      -114.89122832
  atomic energy  EATOM  =      2781.95410799
  ---------------------------------------------------
  free energy    TOTEN  =       -16.14682055 eV

  energy without entropy =      -16.14682055  energy(sigma->0) =      -16.14682055


--------------------------------------------------------------------------------------------------------




--------------------------------------- Iteration      1(  18)  ---------------------------------------


    POTLOK:  cpu time      0.3112: real time      0.3113
    SETDIJ:  cpu time      0.3971: real time      0.3971
    TRIAL :  cpu time      1.2237: real time      1.2237
    CORREC:  cpu time      5.4610: real time      5.4616
    CHARGE:  cpu time      4.3839: real time      4.3841
    --------------------------------------------
      LOOP:  cpu time     11.7869: real time     11.7966

 eigenvalue-minimisations  :     0
 total energy-change (2. order) :-0.1992982E-04  (-0.3303270E-05)
 number of electron      22.0000042 magnetization 
 augmentation part       14.3327258 magnetization 

 DIPCOR: dipole corrections for dipol
 direction  3 min pos     1,
 dipolmoment           0.000000      0.000000      0.000012 electrons x Angstroem
 Tr[quadrupol]     -4916.496677

 energy correction for charged system         0.000000 eV
 dipol+quadrupol energy correction           -0.000000 eV
 added-field ion interaction         -0.000017 eV  (added to PSCEN)


 Free energy of the ion-electron system (eV)
  ---------------------------------------------------
  alpha Z        PSCENC =         0.29601935
  Ewald energy   TEWEN  =       324.65222073
  -Hartree energ DENC   =     -2881.17105914
  -exchange      EXHF   =         0.00000000
  -V(xc)+E(xc)   XCENC  =       109.42638975
  PAW double counting   =      2551.66290564    -2788.37454394
  entropy T*S    EENTRO =        -0.00000000
  eigenvalues    EBANDS =      -114.59288086
  atomic energy  EATOM  =      2781.95410799
  ---------------------------------------------------
  free energy    TOTEN  =       -16.14684048 eV

  energy without entropy =      -16.14684048  energy(sigma->0) =      -16.14684048


--------------------------------------------------------------------------------------------------------




--------------------------------------- Iteration      1(  19)  ---------------------------------------


    POTLOK:  cpu time      0.3143: real time      0.3144
    SETDIJ:  cpu time      0.3908: real time      0.3908
    TRIAL :  cpu time      1.2199: real time      1.2200
    CORREC:  cpu time      5.4562: real time      5.4565
    CHARGE:  cpu time      4.3887: real time      4.3895
    --------------------------------------------
      LOOP:  cpu time     11.8155: real time     11.8169

 eigenvalue-minimisations  :     0
 total energy-change (2. order) :-0.3245947E-05  (-0.2230486E-05)
 number of electron      22.0000042 magnetization 
 augmentation part       14.3323822 magnetization 

 DIPCOR: dipole corrections for dipol
 direction  3 min pos     1,
 dipolmoment           0.000000      0.000000      0.000012 electrons x Angstroem
 Tr[quadrupol]     -4916.497166

 energy correction for charged system         0.000000 eV
 dipol+quadrupol energy correction           -0.000000 eV
 added-field ion interaction         -0.000017 eV  (added to PSCEN)


 Free energy of the ion-electron system (eV)
  ---------------------------------------------------
  alpha Z        PSCENC =         0.29601927
  Ewald energy   TEWEN  =       324.65222073
  -Hartree energ DENC   =     -2881.19934900
  -exchange      EXHF   =         0.00000000
  -V(xc)+E(xc)   XCENC  =       109.42751967
  PAW double counting   =      2551.67614000    -2788.39528719
  entropy T*S    EENTRO =        -0.00000000
  eigenvalues    EBANDS =      -114.55821518
  atomic energy  EATOM  =      2781.95410799
  ---------------------------------------------------
  free energy    TOTEN  =       -16.14684373 eV

  energy without entropy =      -16.14684373  energy(sigma->0) =      -16.14684373


--------------------------------------------------------------------------------------------------------




--------------------------------------- Iteration      1(  20)  ---------------------------------------


    POTLOK:  cpu time      0.3124: real time      0.3124
    SETDIJ:  cpu time      0.3921: real time      0.3921
    TRIAL :  cpu time      1.2222: real time      1.2223
    CORREC:  cpu time      5.4715: real time      5.4717
    CHARGE:  cpu time      4.3855: real time      4.3861
    --------------------------------------------
      LOOP:  cpu time     11.8081: real time     11.8164

 eigenvalue-minimisations  :     0
 total energy-change (2. order) :-0.2113525E-05  (-0.8345968E-06)
 number of electron      22.0000042 magnetization 
 augmentation part       14.3324586 magnetization 

 DIPCOR: dipole corrections for dipol
 direction  3 min pos     1,
 dipolmoment           0.000000      0.000000      0.000012 electrons x Angstroem
 Tr[quadrupol]     -4916.497604

 energy correction for charged system         0.000000 eV
 dipol+quadrupol energy correction           -0.000000 eV
 added-field ion interaction         -0.000017 eV  (added to PSCEN)


 Free energy of the ion-electron system (eV)
  ---------------------------------------------------
  alpha Z        PSCENC =         0.29601922
  Ewald energy   TEWEN  =       324.65222073
  -Hartree energ DENC   =     -2881.15750579
  -exchange      EXHF   =         0.00000000
  -V(xc)+E(xc)   XCENC  =       109.42555045
  PAW double counting   =      2551.64263596    -2788.34940777
  entropy T*S    EENTRO =        -0.00000000
  eigenvalues    EBANDS =      -114.61046662
  atomic energy  EATOM  =      2781.95410799
  ---------------------------------------------------
  free energy    TOTEN  =       -16.14684584 eV

  energy without entropy =      -16.14684584  energy(sigma->0) =      -16.14684584


--------------------------------------------------------------------------------------------------------




--------------------------------------- Iteration      1(  21)  ---------------------------------------


    POTLOK:  cpu time      0.3120: real time      0.3120
    SETDIJ:  cpu time      0.3919: real time      0.3920
    TRIAL :  cpu time      1.2219: real time      1.2220
    CORREC:  cpu time      5.4467: real time      5.4473
    EDDIAG:  cpu time      0.3377: real time      0.3382
    CHARGE:  cpu time      4.4294: real time      4.4296
    --------------------------------------------
      LOOP:  cpu time     12.1596: real time     12.1613

 eigenvalue-minimisations  :     0
 total energy-change (2. order) :-0.5969450E-06  (-0.3509341E-06)
 number of electron      22.0000042 magnetization 
 augmentation part       14.3325581 magnetization 

 DIPCOR: dipole corrections for dipol
 direction  3 min pos     1,
 dipolmoment           0.000000      0.000000      0.000012 electrons x Angstroem
 Tr[quadrupol]     -4916.497574

 energy correction for charged system         0.000000 eV
 dipol+quadrupol energy correction           -0.000000 eV
 added-field ion interaction         -0.000017 eV  (added to PSCEN)


 Free energy of the ion-electron system (eV)
  ---------------------------------------------------
  alpha Z        PSCENC =         0.29601920
  Ewald energy   TEWEN  =       324.65222073
  -Hartree energ DENC   =     -2881.16966361
  -exchange      EXHF   =         0.00000000
  -V(xc)+E(xc)   XCENC  =       109.42608726
  PAW double counting   =      2551.64519370    -2788.35539715
  entropy T*S    EENTRO =        -0.00000000
  eigenvalues    EBANDS =      -114.59541455
  atomic energy  EATOM  =      2781.95410799
  ---------------------------------------------------
  free energy    TOTEN  =       -16.14684644 eV

  energy without entropy =      -16.14684644  energy(sigma->0) =      -16.14684644


--------------------------------------------------------------------------------------------------------


  average scaling for gradient   1.0853


 average (electrostatic) potential at core
  the test charge radii are     0.9430
  (the norm of the test charge is              1.0000)
       1 -79.0234       2 -79.0233



 E-fermi :  -4.4285     XC(G=0):  -0.0968     alpha+bet : -0.0321

 Fermi energy:        -4.4284613146

 k-point     1 :       0.0000    0.0000    0.0000
  band No.  band energies     occupation 
      1      -6.4723      2.00000
      2      -5.6835      2.00000
      3      -5.6835      2.00000
      4      -5.1997      2.00000
      5      -5.1484      2.00000
      6      -5.1470      2.00000
      7      -4.9117      2.00000
      8      -4.9102      2.00000
      9      -4.7212      2.00000
     10      -4.7212      2.00000
     11      -4.6895      2.00000
     12      -2.8539      0.00000
     13      -0.8954      0.00000
     14      -0.8954      0.00000
     15      -0.2665      0.00000
     16       0.0753      0.00000
     17       0.3277      0.00000
     18       0.3345      0.00000
     19       0.3628      0.00000
     20       0.3806      0.00000
     21       0.3806      0.00000
     22       0.4620      0.00000
     23       0.6060      0.00000
     24       0.6060      0.00000
     25       0.6561      0.00000
     26       0.6701      0.00000
     27       0.6709      0.00000
     28       0.6755      0.00000
     29       0.6803      0.00000
     30       0.6803      0.00000
     31       0.6871      0.00000
     32       0.7444      0.00000
     33       0.7444      0.00000
     34       0.8457      0.00000
     35       0.9056      0.00000
     36       0.9056      0.00000
     37       0.9922      0.00000
     38       0.9970      0.00000
     39       0.9976      0.00000
     40       1.0561      0.00000
     41       1.0561      0.00000
     42       1.1139      0.00000
     43       1.2618      0.00000
     44       1.2683      0.00000
     45       1.2710      0.00000
     46       1.2710      0.00000
     47       1.3290      0.00000
     48       1.3878      0.00000
     49       1.3878      0.00000
     50       1.4365      0.00000
     51       1.5802      0.00000
     52       1.5802      0.00000
     53       1.5899      0.00000
     54       1.5922      0.00000
     55       1.6055      0.00000
     56       1.6156      0.00000
     57       1.6181      0.00000
     58       1.6217      0.00000
     59       1.6217      0.00000
     60       1.6386      0.00000
     61       1.6552      0.00000
     62       1.6823      0.00000
     63       1.6823      0.00000
     64       1.6852      0.00000
     65       1.6873      0.00000
     66       1.6989      0.00000
     67       1.7058      0.00000
     68       1.7058      0.00000
     69       1.7106      0.00000
     70       1.7605      0.00000
     71       1.7605      0.00000
     72       1.7776      0.00000
     73       1.7776      0.00000
     74       1.8564      0.00000
     75       1.9088      0.00000
     76       1.9126      0.00000
     77       1.9244      0.00000
     78       1.9244      0.00000
     79       1.9432      0.00000
     80       1.9515      0.00000
     81       1.9549      0.00000
     82       1.9564      0.00000
     83       1.9564      0.00000
     84       1.9801      0.00000
     85       1.9818      0.00000
     86       1.9978      0.00000
     87       2.0124      0.00000
     88       2.0124      0.00000
     89       2.0134      0.00000
     90       2.0134      0.00000
     91       2.0166      0.00000
     92       2.0197      0.00000
     93       2.0204      0.00000
     94       2.1972      0.00000
     95       2.1972      0.00000
     96       2.2421      0.00000
     97       2.2421      0.00000
     98       2.3624      0.00000
     99       2.5633      0.00000
    100       2.5651      0.00000
    101       2.5892      0.00000
    102       2.5892      0.00000
    103       2.6114      0.00000
    104       2.6152      0.00000
    105       2.6351      0.00000
    106       2.6825      0.00000
    107       2.6825      0.00000
    108       2.7318      0.00000
    109       2.7318      0.00000
    110       2.7681      0.00000
    111       2.7762      0.00000
    112       2.8161      0.00000
    113       2.8645      0.00000
    114       2.8674      0.00000
    115       2.8829      0.00000
    116       2.9072      0.00000
    117       2.9072      0.00000
    118       2.9104      0.00000
    119       2.9275      0.00000
    120       2.9363      0.00000
    121       2.9363      0.00000
    122       2.9410      0.00000
    123       2.9415      0.00000
    124       2.9431      0.00000
    125       2.9432      0.00000
    126       2.9520      0.00000
    127       2.9651      0.00000
    128       2.9677      0.00000


--------------------------------------------------------------------------------------------------------


 soft charge-density along one line, spin component           1
         0         1         2         3         4         5         6         7         8         9
 total charge-density along one line

 pseudopotential strength for first ion, spin component:           1
-10.092  -0.000  -0.000  -0.000  -0.000   0.586   0.000   0.000
 -0.000 -10.155  -0.000   0.000   0.000   0.000   0.643   0.000
 -0.000  -0.000 -10.177  -0.000   0.000   0.000   0.000   0.661
 -0.000   0.000  -0.000 -10.155   0.000   0.000  -0.000   0.000
 -0.000   0.000   0.000   0.000 -10.090   0.000  -0.000  -0.000
  0.586   0.000   0.000   0.000   0.000   6.827  -0.000  -0.000
  0.000   0.643   0.000  -0.000  -0.000  -0.000   6.780  -0.000
  0.000   0.000   0.661   0.000  -0.000  -0.000  -0.000   6.768
  0.000  -0.000   0.000   0.643  -0.000  -0.000   0.000  -0.000
  0.000  -0.000  -0.000  -0.000   0.586  -0.000   0.000   0.000
 -0.000   0.000   0.025   0.000   0.000  -0.000   0.000  -0.004
 -0.000   0.000   0.045   0.000   0.000  -0.000   0.000  -0.003
  0.000   0.033  -0.000   0.000  -0.000   0.000   0.001   0.000
  0.000   0.000   0.044   0.000   0.000   0.000  -0.000  -0.015
  0.000   0.000  -0.000   0.033   0.000  -0.000   0.000   0.000
  0.000   0.034  -0.000   0.000  -0.000   0.000   0.007  -0.000
  0.000   0.000   0.051   0.000  -0.000   0.000   0.000  -0.012
  0.000   0.000  -0.000   0.034   0.000  -0.000   0.000   0.000
 total augmentation occupancy for first ion, spin component:           1
  1.988   0.000   0.000  -0.000   0.000  -0.022   0.000   0.000   0.000   0.000   0.000   0.000   0.000   0.000   0.000   0.000
  0.000   1.977  -0.000   0.000   0.000  -0.000  -0.009   0.000  -0.000   0.000   0.000   0.000  -0.065   0.000   0.000   0.052
  0.000  -0.000   1.967   0.000  -0.000   0.000   0.000   0.009  -0.000  -0.000  -0.129  -0.001   0.000  -0.142  -0.000   0.000
 -0.000   0.000   0.000   1.977   0.000  -0.000   0.000   0.000  -0.009   0.000   0.000  -0.000  -0.000   0.000  -0.065   0.000
  0.000   0.000  -0.000   0.000   1.988   0.000  -0.000  -0.000   0.000  -0.022   0.000   0.000   0.000   0.000   0.000   0.000
 -0.022   0.000   0.000   0.000   0.000   0.000   0.000   0.000   0.000  -0.000   0.000   0.000   0.000   0.000   0.000   0.000
  0.000  -0.009   0.000   0.000  -0.000   0.000   0.004   0.000   0.000   0.000   0.000   0.000  -0.007  -0.000   0.000   0.000
  0.000   0.000   0.009   0.000  -0.000   0.000   0.000   0.009   0.000  -0.000   0.095  -0.009   0.000  -0.025  -0.000   0.000
  0.000  -0.000  -0.000  -0.009   0.000   0.000   0.000   0.000   0.004   0.000   0.000   0.000  -0.000   0.000  -0.007   0.000
  0.000   0.000  -0.000   0.000  -0.022  -0.000   0.000  -0.000   0.000   0.000  -0.000   0.000  -0.000   0.000   0.000  -0.000
  0.000   0.000  -0.129   0.000   0.000   0.000   0.000   0.095   0.000  -0.000   1.760  -0.154   0.000  -0.323   0.000   0.000
  0.000   0.000  -0.001   0.000   0.000   0.000   0.000  -0.009   0.000   0.000  -0.154   0.014   0.000   0.030   0.000   0.000
  0.000  -0.065   0.000  -0.000   0.000   0.000  -0.007   0.000  -0.000  -0.000   0.000   0.000   0.017   0.000   0.000  -0.003
  0.000   0.000  -0.142   0.000   0.000   0.000  -0.000  -0.025   0.000   0.000  -0.323   0.030   0.000   0.083  -0.000   0.000
  0.000   0.000  -0.000  -0.065   0.000  -0.000   0.000  -0.000  -0.007   0.000   0.000   0.000   0.000  -0.000   0.017  -0.000
  0.000   0.052   0.000   0.000   0.000   0.000   0.000   0.000   0.000  -0.000   0.000   0.000  -0.003   0.000  -0.000   0.002
  0.000   0.000   0.058   0.000  -0.000   0.000   0.000   0.004   0.000  -0.000   0.045  -0.004   0.000  -0.014   0.000   0.000
 -0.000   0.000   0.000   0.052   0.000   0.000   0.000   0.000   0.000   0.000   0.000   0.000   0.000   0.000  -0.003   0.000


------------------------ aborting loop because EDIFF is reached ----------------------------------------


    FORLOC:  cpu time      0.0014: real time      0.0014
    FORNL :  cpu time      0.1200: real time      0.1200
    STRESS:  cpu time      7.9040: real time      7.9048
    FORCOR:  cpu time      0.1620: real time      0.1620
    OFIELD:  cpu time      0.0002: real time      0.0002

  FORCE on cell =-STRESS in cart. coord.  units (eV):
  Direction    XX          YY          ZZ          XY          YZ          ZX
  --------------------------------------------------------------------------------------
  Alpha Z     0.29604     0.29604     0.29604
  Ewald    -147.49240  -147.49240   619.63705    -0.00000     0.00000     0.00000
  Hartree   772.82362   772.82362  1335.53611    -0.00000    -0.00000    -0.00000
  E(xc)    -142.08988  -142.08988  -141.84434    -0.00000    -0.00000     0.00000
  Local    -812.13684  -812.13684 -2127.94512     0.00000    -0.00000     0.00000
  n-local   -50.94901   -50.94901   -54.60643     0.00000    -0.00000     0.00000
  augment   195.82431   195.82431   190.13724    -0.00000     0.00000    -0.00000
  Kinetic   183.73624   183.73624   177.96659    -0.00000    -0.00000     0.00000
  Fock        0.00000     0.00000     0.00000     0.00000     0.00000     0.00000
  -------------------------------------------------------------------------------------
  Total       0.01208     0.01208    -0.82286     0.00000     0.00000     0.00000
  in kB       0.00196     0.00196    -0.13342     0.00000     0.00000     0.00000
  external pressure =       -0.04 kB  Pullay stress =        0.00 kB


 VOLUME and BASIS-vectors are now :
 -----------------------------------------------------------------------------
  energy-cutoff  :      520.00
  volume of cell :     9881.61
      direct lattice vectors                 reciprocal lattice vectors
    21.138852197  0.000000000  0.000000000     0.047306258  0.000000000  0.000000000
     0.000000000 21.138852197  0.000000000     0.000000000  0.047306258  0.000000000
     0.000000000  0.000000000 22.113885220     0.000000000  0.000000000  0.045220457

  length of vectors
    21.138852197 21.138852197 22.113885220     0.047306258  0.047306258  0.045220457


 FORCES acting on ions:
    Electron-Ion                     Ewald-Force                    Non-Local-Force
 -----------------------------------------------------------------------------------------------
   -.502E-12 0.305E-11 -.366E+03   -.114E-16 0.242E-16 0.351E+03   -.414E-24 0.414E-24 0.148E+02
   -.338E-12 -.146E-11 0.366E+03   -.311E-16 -.427E-17 -.351E+03   0.207E-24 -.414E-24 -.148E+02
 -----------------------------------------------------------------------------------------------
   -.941E-12 0.146E-11 -.295E-02   -.425E-16 0.199E-16 0.000E+00   -.207E-24 0.000E+00 -.178E-14


 POSITION                                       TOTAL-FORCE (eV/Angst)
 -----------------------------------------------------------------------------------
     10.56943     10.56943     15.28023         0.000000      0.000000     -0.375804
     10.56943     10.56943     13.05633         0.000000     -0.000000      0.375804
 -----------------------------------------------------------------------------------
    total drift:                               -0.000000      0.000000     -0.002946


--------------------------------------------------------------------------------------------------------



  FREE ENERGIE OF THE ION-ELECTRON SYSTEM (eV)
  ---------------------------------------------------
  free  energy   TOTEN  =       -16.14684644 eV

  energy  without entropy=      -16.14684644  energy(sigma->0) =      -16.14684644



--------------------------------------------------------------------------------------------------------


    POTLOK:  cpu time      0.7008: real time      0.7009


--------------------------------------------------------------------------------------------------------


     LOOP+:  cpu time    219.8455: real time    219.9979
    4ORBIT:  cpu time      0.0000: real time      0.0000

 total amount of memory used by VASP MPI-rank0   152867. kBytes
=======================================================================

   base      :      30000. kBytes
   nonlr-proj:        772. kBytes
   fftplans  :      35317. kBytes
   grid      :      83562. kBytes
   one-center:         15. kBytes
   wavefun   :       3201. kBytes

  
  
 General timing and accounting informations for this job:
 ========================================================
  
                  Total CPU time used (sec):      251.073
                            User time (sec):      218.677
                          System time (sec):       32.396
                         Elapsed time (sec):      262.592
  
                   Maximum memory used (kb):     1320624.
                   Average memory used (kb):          N/A
  
                          Minor page faults:      4679501
                          Major page faults:            0
                 Voluntary context switches:        12685
