 vasp.6.4.1 05Apr23 (build May 06 2023 19:47:20) complex                        
  
 executed on             LinuxIFC date 2023.07.04  04:18:47
 running  768 mpi-ranks, with    1 threads/rank, on   48 nodes
 distrk:  each k-point on  768 cores,    1 groups
 distr:  one band on NCORE=  16 cores,   48 groups


--------------------------------------------------------------------------------------------------------


 INCAR:
   SYSTEM = MgO-rocksalt
   ISMEAR = 0
   SIGMA = 0.05
   EDIFF = 1E-6
   ALGO = ALL
   ISTART = 0
   IBRION = -1
   NSW = 0
   ISYM = 2
   DIPOL = 0.5 0.5 0.5
   IDIPOL = 3
   LDIPOL = .TRUE.
   GGA = RE
   IVDW = 11
   ENCUT = 520
   PREC = Accurate
   LASPH = .TRUE.
   LREAL = Auto
   ISPIN = 1
   NELM = 200
   NELMIN = 8
   NCORE = 16
   KPAR = 1
   LWAVE = .FALSE.
   LCHARG = .FALSE.

 POTCAR:    PAW_PBE Cu 22Jun2005                  
 POTCAR:    PAW_PBE Cu 22Jun2005                  
   SHA256 =  0e71e558f37a4e8407882b4609ceaae59938afaad9ced71dfe8490308a0ab630 Cu/POTCAR             
   COPYR  = (c) Copyright 22Jun2005 Georg Kresse                                                    
   COPYR  = This file is part of the software VASP. Any use, copying, and all other rights are regul
   COPYR  = If you do not have a valid VASP license, you may not use, copy or distribute this file. 
   VRHFIN =Cu: d10 p1                                                                               
   LEXCH  = PE                                                                                      
   EATOM  =  1390.9808 eV,  102.2342 Ry                                                             
                                                                                                    
   TITEL  = PAW_PBE Cu 22Jun2005                                                                    
   LULTRA =        F    use ultrasoft PP ?                                                          
   IUNSCR =        1    unscreen: 0-lin 1-nonlin 2-no                                               
   RPACOR =    2.000    partial core radius                                                         
   POMASS =   63.546; ZVAL   =   11.000    mass and valenz                                          
   RCORE  =    2.300    outmost cutoff radius                                                       
   RWIGS  =    2.200; RWIGS  =    1.164    wigner-seitz radius (au A)                               
   ENMAX  =  295.446; ENMIN  =  221.585 eV                                                          
   ICORE  =        3    local potential                                                             
   LCOR   =        T    correct aug charges                                                         
   LPAW   =        T    paw PP                                                                      
   EAUG   =  586.980                                                                                
   DEXC   =    0.000                                                                                
   RMAX   =    2.344    core radius for proj-oper                                                   
   RAUG   =    1.300    factor for augmentation sphere                                              
   RDEP   =    2.302    radius for radial grids                                                     
   RDEPT  =    1.771    core radius for aug-charge                                                  
                                                                                                    
   Atomic configuration                                                                             
    9 entries                                                                                       
     n  l   j            E        occ.                                                              
     1  0  0.50     -8850.2468   2.0000                                                             
     2  0  0.50     -1062.3498   2.0000                                                             
     2  1  1.50      -916.8226   6.0000                                                             
     3  0  0.50      -114.6929   2.0000                                                             
     3  1  1.50       -72.1325   6.0000                                                             
     3  2  2.50        -5.0394  10.0000                                                             
     4  0  0.50        -4.6097   1.0000                                                             
     4  1  0.50        -4.0817   0.0000                                                             
     4  3  2.50        -1.3606   0.0000                                                             
   Description                                                                                      
     l       E           TYP  RCUT    TYP  RCUT                                                     
     2     -5.0393973     23  2.200                                                                 
     2     10.8846608     23  2.200                                                                 
     0     -4.6097109     23  2.200                                                                 
     0      8.2520465     23  2.200                                                                 
     1     -2.7211652     23  2.200                                                                 
     1     21.7055443     23  2.200                                                                 
     3      2.7211652     23  2.300                                                                 
  local pseudopotential read in
  partial core-charges read in
  partial kinetic energy density read in
  atomic valenz-charges read in
  non local Contribution for L=           2  read in
    real space projection operators read in
  non local Contribution for L=           2  read in
    real space projection operators read in
  non local Contribution for L=           0  read in
    real space projection operators read in
  non local Contribution for L=           0  read in
    real space projection operators read in
  non local Contribution for L=           1  read in
    real space projection operators read in
  non local Contribution for L=           1  read in
    real space projection operators read in
    PAW grid and wavefunctions read in
 
   number of l-projection  operators is LMAX  =           6
   number of lm-projection operators is LMMAX =          18
 
 -----------------------------------------------------------------------------
|                                                                             |
|               ----> ADVICE to this user running VASP <----                  |
|                                                                             |
|     You have a (more or less) 'small supercell' and for smaller cells       |
|     it is recommended to use the reciprocal-space projection scheme!        |
|     The real-space optimization is not efficient for small cells and it     |
|     is also less accurate ...                                               |
|     Therefore, set LREAL=.FALSE. in the INCAR file.                         |
|                                                                             |
 -----------------------------------------------------------------------------

 Optimization of the real space projectors (new method)

 maximal supplied QI-value         = 16.25
 optimisation between [QCUT,QGAM] = [ 11.54, 23.24] = [ 37.28,151.24] Ry 
 Optimized for a Real-space Cutoff    1.53 Angstroem

   l    n(q)    QCUT    max X(q) W(low)/X(q) W(high)/X(q)  e(spline) 
   2     10    11.539     4.610    0.96E-04    0.13E-03    0.19E-06
   2     10    11.539     8.522    0.16E-03    0.21E-03    0.28E-06
   0     11    11.539    51.609    0.45E-04    0.31E-04    0.11E-06
   0     11    11.539    27.747    0.39E-04    0.29E-04    0.10E-06
   1     10    11.539    20.408    0.70E-05    0.38E-04    0.18E-06
   1     10    11.539    13.425    0.66E-05    0.34E-04    0.17E-06
 -----------------------------------------------------------------------------
|                                                                             |
|               ----> ADVICE to this user running VASP <----                  |
|                                                                             |
|     You enforced a specific xc type in the INCAR file but a different       |
|     type was found in the POTCAR file.                                      |
|     I HOPE YOU KNOW WHAT YOU ARE DOING!                                     |
|                                                                             |
 -----------------------------------------------------------------------------

  PAW_PBE Cu 22Jun2005                  :
 energy of atom  1       EATOM=-1390.9808
 kinetic energy error for atom=    0.0037 (will be added to EATOM!!)
 
 
 POSCAR: Cu
  positions in direct lattice
  No initial velocities read in
 exchange correlation table for  LEXCH =       40
   RHO(1)=    0.500       N(1)  =     2000
   RHO(2)=  100.500       N(2)  =     4000
 


--------------------------------------------------------------------------------------------------------


 ion  position               nearest neighbor table
   1  0.450  0.450  0.699-   2 2.23
   2  0.450  0.450  0.598-   1 2.23
 
  LATTYP: Found a simple tetragonal cell.
 ALAT       =    21.1388521970
 C/A-ratio  =     1.0461251639
  
  Lattice vectors:
  
 A1 = (  21.1388521970,   0.0000000000,   0.0000000000)
 A2 = (   0.0000000000,  21.1388521970,   0.0000000000)
 A3 = (   0.0000000000,   0.0000000000,  22.1138852197)


Analysis of symmetry for initial positions (statically):
=====================================================================
 Subroutine PRICEL returns:
 Original cell was already a primitive cell.
 

 Routine SETGRP: Setting up the symmetry group for a 
 simple tetragonal supercell.


 Subroutine GETGRP returns: Found 16 space group operations
 (whereof  2 operations were pure point group operations)
 out of a pool of 16 trial point group operations.


The static configuration has the point symmetry C_1h.
 The point group associated with its full space group is D_4h.


Analysis of symmetry for dynamics (positions and initial velocities):
=====================================================================
 Subroutine PRICEL returns:
 Original cell was already a primitive cell.
 

 Routine SETGRP: Setting up the symmetry group for a 
 simple tetragonal supercell.


 Subroutine GETGRP returns: Found 16 space group operations
 (whereof  2 operations were pure point group operations)
 out of a pool of 16 trial point group operations.


The dynamic configuration has the point symmetry C_1h.
 The point group associated with its full space group is D_4h.


 Subroutine INISYM returns: Found 16 space group operations
 (whereof  2 operations are pure point group operations),
 and found     1 'primitive' translations


----------------------------------------------------------------------------------------

                                     Primitive cell                                     

  volume of cell :    9881.6133

  direct lattice vectors                    reciprocal lattice vectors
    21.138852197  0.000000000  0.000000000     0.047306258  0.000000000  0.000000000
     0.000000000 21.138852197  0.000000000     0.000000000  0.047306258  0.000000000
     0.000000000  0.000000000 22.113885220     0.000000000  0.000000000  0.045220457

  length of vectors
    21.138852197 21.138852197 22.113885220     0.047306258  0.047306258  0.045220457

  position of ions in fractional coordinates (direct lattice)
     0.449999988  0.450000018  0.698691433
     0.449999988  0.450000018  0.597977010

  ion indices of the primitive-cell ions
   primitive index   ion index
                 1           1
                 2           2

----------------------------------------------------------------------------------------

 
 
 KPOINTS: KPOINTS created by Atomic Simulation Env

Automatic generation of k-mesh.
 Grid dimensions read from file:
 generate k-points for:    1    1    1

 Generating k-lattice:

  Cartesian coordinates                     Fractional coordinates (reciprocal lattice)
     0.047306258  0.000000000  0.000000000     1.000000000  0.000000000  0.000000000
     0.000000000  0.047306258  0.000000000     0.000000000  1.000000000  0.000000000
     0.000000000  0.000000000  0.045220457     0.000000000  0.000000000  1.000000000

  Length of vectors
     0.047306258  0.047306258  0.045220457

  Shift w.r.t. Gamma in fractional coordinates (k-lattice)
     0.000000000  0.000000000  0.000000000

 
 Subroutine IBZKPT returns following result:
 ===========================================
 
 Found      1 irreducible k-points:
 
 Following reciprocal coordinates:
            Coordinates               Weight
  0.000000  0.000000  0.000000      1.000000
 
 Following cartesian coordinates:
            Coordinates               Weight
  0.000000  0.000000  0.000000      1.000000
 


--------------------------------------------------------------------------------------------------------




 Dimension of arrays:
   k-points           NKPTS =      1   k-points in BZ     NKDIM =      1   number of bands    NBANDS=     48
   number of dos      NEDOS =    301   number of ions     NIONS =      2
   non local maximal  LDIM  =      6   non local SUM 2l+1 LMDIM =     18
   total plane-waves  NPLWV = ******
   max r-space proj   IRMAX =   6628   max aug-charges    IRDMAX=  12805
   dimension x,y,z NGX =   160 NGY =  160 NGZ =  168
   dimension x,y,z NGXF=   320 NGYF=  320 NGZF=  336
   support grid    NGXF=   320 NGYF=  320 NGZF=  336
   ions per type =               2
   NGX,Y,Z   is equivalent  to a cutoff of  12.58, 12.58, 12.63 a.u.
   NGXF,Y,Z  is equivalent  to a cutoff of  25.17, 25.17, 25.26 a.u.

 SYSTEM =  MgO-rocksalt                            
 POSCAR =  Cu                                      

 Startparameter for this run:
   NWRITE =      2    write-flag & timer
   PREC   = accura    normal or accurate (medium, high low for compatibility)
   ISTART =      0    job   : 0-new  1-cont  2-samecut
   ICHARG =      2    charge: 1-file 2-atom 10-const
   ISPIN  =      1    spin polarized calculation?
   LNONCOLLINEAR =      F non collinear calculations
   LSORBIT =      F    spin-orbit coupling
   INIWAV =      1    electr: 0-lowe 1-rand  2-diag
   LASPH  =      T    aspherical Exc in radial PAW
 Electronic Relaxation 1
   ENCUT  =  520.0 eV  38.22 Ry    6.18 a.u.  39.30 39.30 41.12*2*pi/ulx,y,z
   ENINI  =  520.0     initial cutoff
   ENAUG  =  587.0 eV  augmentation charge cutoff
   NELM   =    200;   NELMIN=  8; NELMDL= -5     # of ELM steps 
   EDIFF  = 0.1E-05   stopping-criterion for ELM
   LREAL  =      T    real-space projection
   NLSPLINE    = F    spline interpolate recip. space projectors
   LCOMPAT=      F    compatible to vasp.4.4
   GGA_COMPAT  = T    GGA compatible to vasp.4.4-vasp.4.6
   LMAXPAW     = -100 max onsite density
   LMAXMIX     =    2 max onsite mixed and CHGCAR
   VOSKOWN=      0    Vosko Wilk Nusair interpolation
   ROPT   =   -0.00025
 Ionic relaxation
   EDIFFG = 0.1E-04   stopping-criterion for IOM
   NSW    =      0    number of steps for IOM
   NBLOCK =      1;   KBLOCK =      1    inner block; outer block 
   IBRION =     -1    ionic relax: 0-MD 1-quasi-New 2-CG
   NFREE  =      0    steps in history (QN), initial steepest desc. (CG)
   ISIF   =      2    stress and relaxation
   IWAVPR =     10    prediction:  0-non 1-charg 2-wave 3-comb
   ISYM   =      2    0-nonsym 1-usesym 2-fastsym
   LCORR  =      T    Harris-Foulkes like correction to forces

   POTIM  = 0.5000    time-step for ionic-motion
   TEIN   =    0.0    initial temperature
   TEBEG  =    0.0;   TEEND  =   0.0 temperature during run
   SMASS  =  -3.00    Nose mass-parameter (am)
   estimated Nose-frequenzy (Omega)   =  0.10E-29 period in steps = 0.13E+47 mass=  -0.102E-25a.u.
   SCALEE = 1.0000    scale energy and forces
   NPACO  =    256;   APACO  = 10.0  distance and # of slots for P.C.
   PSTRESS=    0.0 pullay stress

  Mass of Ions in am
   POMASS =  63.55
  Ionic Valenz
   ZVAL   =  11.00
  Atomic Wigner-Seitz radii
   RWIGS  =  -1.00
  virtual crystal weights 
   VCA    =   1.00
   NELECT =      22.0000    total number of electrons
   NUPDOWN=      -1.0000    fix difference up-down

 DOS related values:
   EMIN   =  10.00;   EMAX   =-10.00  energy-range for DOS
   EFERMI =   0.00;   METHOD = LEGACY      
   ISMEAR =     0;   SIGMA  =   0.05  broadening in eV -4-tet -1-fermi 0-gaus

 Electronic relaxation 2 (details)
   IALGO  =     58    algorithm
   LDIAG  =      T    sub-space diagonalisation (order eigenvalues)
   LSUBROT=      F    optimize rotation matrix (better conditioning)
   TURBO    =      0    0=normal 1=particle mesh
   IRESTART =      0    0=no restart 2=restart with 2 vectors
   NREBOOT  =      0    no. of reboots
   NMIN     =      0    reboot dimension
   EREF     =   0.00    reference energy to select bands
   IMIX   =      4    mixing-type and parameters
     AMIX     =   0.40;   BMIX     =  1.00
     AMIX_MAG =   1.60;   BMIX_MAG =  1.00
     AMIN     =   0.10
     WC   =   100.;   INIMIX=   1;  MIXPRE=   1;  MAXMIX= -45

 Intra band minimization:
   WEIMIN = 0.0000     energy-eigenvalue tresh-hold
   EBREAK =  0.52E-08  absolut break condition
   DEPER  =   0.30     relativ break condition  

   TIME   =   0.40     timestep for ELM

  volume/ion in A,a.u.               =    4940.81     33342.21
  Fermi-wavevector in a.u.,A,eV,Ry     =   0.213767  0.403960  0.621734  0.045696
  Thomas-Fermi vector in A             =   0.985879
 
 Write flags
   LWAVE        =      F    write WAVECAR
   LDOWNSAMPLE  =      F    k-point downsampling of WAVECAR
   LCHARG       =      F    write CHGCAR
   LVTOT        =      F    write LOCPOT, total local potential
   LVHAR        =      F    write LOCPOT, Hartree potential only
   LELF         =      F    write electronic localiz. function (ELF)
   LORBIT       =      0    0 simple, 1 ext, 2 COOP (PROOUT), +10 PAW based schemes


 Dipole corrections
   LMONO  =      F    monopole corrections only (constant potential shift)
   LDIPOL =      T    correct potential (dipole corrections)
   IDIPOL =      3    1-x, 2-y, 3-z, 4-all directions 
   EPSILON=  1.0000000 bulk dielectric constant

 Exchange correlation treatment:
   GGA     =    RE    GGA type
   LEXCH   =    40    internal setting for exchange type
   LIBXC   =     F    Libxc                    
   VOSKOWN =     0    Vosko Wilk Nusair interpolation
   LHFCALC =     F    Hartree Fock is set to
   LHFONE  =     F    Hartree Fock one center treatment
   AEXX    =    0.0000 exact exchange contribution

 Linear response parameters
   LEPSILON=     F    determine dielectric tensor
   LRPA    =     F    only Hartree local field effects (RPA)
   LNABLA  =     F    use nabla operator in PAW spheres
   LVEL    =     F    velocity operator in full k-point grid
   CSHIFT  =0.1000    complex shift for real part using Kramers Kronig
   OMEGAMAX=  -1.0    maximum frequency
   DEG_THRESHOLD= 0.2000000E-02 threshold for treating states as degnerate
   RTIME   =   -0.100 relaxation time in fs
  (WPLASMAI=    0.000 imaginary part of plasma frequency in eV, 0.658/RTIME)
   DFIELD  = 0.0000000 0.0000000 0.0000000 field for delta impulse in time
 
  Optional k-point grid parameters
   LKPOINTS_OPT  =     F    use optional k-point grid
   KPOINTS_OPT_MODE=     1    mode for optional k-point grid
 
 Orbital magnetization related:
   ORBITALMAG=     F  switch on orbital magnetization
   LCHIMAG   =     F  perturbation theory with respect to B field
   DQ        =  0.001000  dq finite difference perturbation B field
   LLRAUG    =     F  two centre corrections for induced B field
   LBONE     =     F  B-component reconstruction in AE one-centre
   LVGVCALC  =     T  calculate vGv susceptibility
   LVGVAPPL  =     F  apply vGv susceptibility instead of pGv for G=0

 Random number generation:
   RANDOM_GENERATOR = DEFAULT
   PCG_SEED         = not used


--------------------------------------------------------------------------------------------------------


 Static calculation
 charge density and potential will be updated during run
 non-spin polarized calculation
 Conjugate gradient for all bands (Freysoldt, et al. PRB 79, 241103 (2009))
 preconditioned conjugated gradient                                        
 perform sub-space diagonalisation
    before iterative eigenvector-optimisation
 modified Broyden-mixing scheme, WC =      100.0
 initial mixing is a Kerker type mixing with AMIX =  0.4000 and BMIX =      1.0000
 Hartree-type preconditioning will be used
 using additional bands           37
 real space projection scheme for non local part
 use partial core corrections
 no Harris-corrections to forces 
 use gradient corrections 
 use of overlap-Matrix (Vanderbilt PP)
 Gauss-broadening in eV      SIGMA  =   0.05


--------------------------------------------------------------------------------------------------------


  energy-cutoff  :      520.00
  volume of cell :     9881.61
      direct lattice vectors                 reciprocal lattice vectors
    21.138852197  0.000000000  0.000000000     0.047306258  0.000000000  0.000000000
     0.000000000 21.138852197  0.000000000     0.000000000  0.047306258  0.000000000
     0.000000000  0.000000000 22.113885220     0.000000000  0.000000000  0.045220457

  length of vectors
    21.138852197 21.138852197 22.113885220     0.047306258  0.047306258  0.045220457


 
 k-points in units of 2pi/SCALE and weight: KPOINTS created by Atomic Simulation Env
   0.00000000  0.00000000  0.00000000       1.000
 
 k-points in reciprocal lattice and weights: KPOINTS created by Atomic Simulation Env
   0.00000000  0.00000000  0.00000000       1.000
 
 position of ions in fractional coordinates (direct lattice) 
   0.44999999  0.45000002  0.69869143
   0.44999999  0.45000002  0.59797701
 
 position of ions in cartesian coordinates  (Angst):
   9.51248324  9.51248387 15.45078214
   9.51248324  9.51248387 13.22359497
 


--------------------------------------------------------------------------------------------------------


 k-point   1 :   0.0000 0.0000 0.0000  plane waves:  265979

 maximum and minimum number of plane-waves per node :     16635    16606

 maximum number of plane-waves:    265979
 maximum index in each direction: 
   IXMAX=   39   IYMAX=   39   IZMAX=   41
   IXMIN=  -39   IYMIN=  -39   IZMIN=  -41


 real space projection operators:
  total allocation   :       1803.09 KBytes
  max/ min on nodes  :        121.50        102.94


 parallel 3D FFT for wavefunctions:
    minimum data exchange during FFTs selected (reduces bandwidth)
 parallel 3D FFT for charge:
    minimum data exchange during FFTs selected (reduces bandwidth)


 total amount of memory used by VASP MPI-rank0    58517. kBytes
=======================================================================

   base      :      30000. kBytes
   nonlr-proj:        374. kBytes
   fftplans  :      11368. kBytes
   grid      :      15959. kBytes
   one-center:         15. kBytes
   wavefun   :        801. kBytes
 
     INWAV:  cpu time      0.0004: real time      0.0005
 Broyden mixing: mesh for mixing (old mesh)
   NGX = 79   NGY = 79   NGZ = 83
  (NGX  =320   NGY  =320   NGZ  =336)
  gives a total of 518003 points

 initial charge density was supplied:
 charge density of overlapping atoms calculated
 number of electron      22.0000000 magnetization 
 keeping initial charge density in first step


--------------------------------------------------------------------------------------------------------


 Maximum index for non-local projection operator          432
 Maximum index for augmentation-charges            0 (set IRDMAX)


--------------------------------------------------------------------------------------------------------


 First call to EWALD:  gamma=   0.083
 Maximum number of real-space cells 3x 3x 3
 Maximum number of reciprocal cells 3x 3x 3

    FEWALD:  cpu time      0.0073: real time      0.0083


--------------------------------------- Ionic step        1  -------------------------------------------




--------------------------------------- Iteration      1(   1)  ---------------------------------------


    POTLOK:  cpu time      0.3050: real time      0.3097
    SETDIJ:  cpu time      0.7388: real time      0.7400
    TRIAL :  cpu time      0.2759: real time      0.3314
    CORREC:  cpu time      0.0035: real time      0.0034
    --------------------------------------------
      LOOP:  cpu time      1.3260: real time      1.3882

 eigenvalue-minimisations  :    96
 total energy-change (2. order) : 0.1127691E+03  (-0.3149307E+03)
 number of electron      22.0000000 magnetization 
 augmentation part       22.0000000 magnetization 

 DIPCOR: dipole corrections for dipol
 direction  3 min pos     1,
 dipolmoment           0.000000      0.000000     -0.000054 electrons x Angstroem
 Tr[quadrupol]     -3980.840351

 energy correction for charged system         0.000000 eV
 dipol+quadrupol energy correction           -0.000000 eV
 added-field ion interaction          0.000077 eV  (added to PSCEN)


 Free energy of the ion-electron system (eV)
  ---------------------------------------------------
  alpha Z        PSCENC =         0.29611279
  Ewald energy   TEWEN  =       323.49978826
  -Hartree energ DENC   =     -2865.65476567
  -exchange      EXHF   =         0.00000000
  -V(xc)+E(xc)   XCENC  =        87.03978703
  PAW double counting   =      2457.61384113    -2667.38446276
  entropy T*S    EENTRO =        -0.04290684
  eigenvalues    EBANDS =        -2.67107496
  atomic energy  EATOM  =      2780.07275915
  ---------------------------------------------------
  free energy    TOTEN  =       112.76907812 eV

  energy without entropy =      112.81198496  energy(sigma->0) =      112.79053154


--------------------------------------------------------------------------------------------------------




--------------------------------------- Iteration      1(   2)  ---------------------------------------


    TRIAL :  cpu time      0.3978: real time      0.4012
    CORREC:  cpu time      0.0010: real time      0.0010
    --------------------------------------------
      LOOP:  cpu time      0.4093: real time      0.4131

 eigenvalue-minimisations  :   192
 total energy-change (2. order) :-0.1137802E+03  (-0.1130594E+03)
 number of electron      22.0000000 magnetization 
 augmentation part       22.0000000 magnetization 

 DIPCOR: dipole corrections for dipol
 direction  3 min pos     1,
 dipolmoment           0.000000      0.000000     -0.000054 electrons x Angstroem
 Tr[quadrupol]     -3980.840351

 energy correction for charged system         0.000000 eV
 dipol+quadrupol energy correction           -0.000000 eV
 added-field ion interaction          0.000077 eV  (added to PSCEN)


 Free energy of the ion-electron system (eV)
  ---------------------------------------------------
  alpha Z        PSCENC =         0.29611279
  Ewald energy   TEWEN  =       323.49978826
  -Hartree energ DENC   =     -2865.65476567
  -exchange      EXHF   =         0.00000000
  -V(xc)+E(xc)   XCENC  =        87.03978703
  PAW double counting   =      2457.61384113    -2667.38446276
  entropy T*S    EENTRO =        -0.00000000
  eigenvalues    EBANDS =      -116.49414320
  atomic energy  EATOM  =      2780.07275915
  ---------------------------------------------------
  free energy    TOTEN  =        -1.01108328 eV

  energy without entropy =       -1.01108328  energy(sigma->0) =       -1.01108328


--------------------------------------------------------------------------------------------------------




--------------------------------------- Iteration      1(   3)  ---------------------------------------


    TRIAL :  cpu time      0.1604: real time      0.1605
    CORREC:  cpu time      0.0010: real time      0.0010
    --------------------------------------------
      LOOP:  cpu time      0.1719: real time      0.1723

 eigenvalue-minimisations  :    96
 total energy-change (2. order) :-0.1961494E+01  (-0.1961494E+01)
 number of electron      22.0000000 magnetization 
 augmentation part       22.0000000 magnetization 

 DIPCOR: dipole corrections for dipol
 direction  3 min pos     1,
 dipolmoment           0.000000      0.000000     -0.000054 electrons x Angstroem
 Tr[quadrupol]     -3980.840351

 energy correction for charged system         0.000000 eV
 dipol+quadrupol energy correction           -0.000000 eV
 added-field ion interaction          0.000077 eV  (added to PSCEN)


 Free energy of the ion-electron system (eV)
  ---------------------------------------------------
  alpha Z        PSCENC =         0.29611279
  Ewald energy   TEWEN  =       323.49978826
  -Hartree energ DENC   =     -2865.65476567
  -exchange      EXHF   =         0.00000000
  -V(xc)+E(xc)   XCENC  =        87.03978703
  PAW double counting   =      2457.61384113    -2667.38446276
  entropy T*S    EENTRO =        -0.00000000
  eigenvalues    EBANDS =      -118.45563737
  atomic energy  EATOM  =      2780.07275915
  ---------------------------------------------------
  free energy    TOTEN  =        -2.97257744 eV

  energy without entropy =       -2.97257744  energy(sigma->0) =       -2.97257744


--------------------------------------------------------------------------------------------------------




--------------------------------------- Iteration      1(   4)  ---------------------------------------


    TRIAL :  cpu time      0.3750: real time      0.3773
    CORREC:  cpu time      0.0010: real time      0.0010
    --------------------------------------------
      LOOP:  cpu time      0.3888: real time      0.3915

 eigenvalue-minimisations  :   192
 total energy-change (2. order) :-0.3024006E-01  (-0.3024006E-01)
 number of electron      22.0000000 magnetization 
 augmentation part       22.0000000 magnetization 

 DIPCOR: dipole corrections for dipol
 direction  3 min pos     1,
 dipolmoment           0.000000      0.000000     -0.000054 electrons x Angstroem
 Tr[quadrupol]     -3980.840351

 energy correction for charged system         0.000000 eV
 dipol+quadrupol energy correction           -0.000000 eV
 added-field ion interaction          0.000077 eV  (added to PSCEN)


 Free energy of the ion-electron system (eV)
  ---------------------------------------------------
  alpha Z        PSCENC =         0.29611279
  Ewald energy   TEWEN  =       323.49978826
  -Hartree energ DENC   =     -2865.65476567
  -exchange      EXHF   =         0.00000000
  -V(xc)+E(xc)   XCENC  =        87.03978703
  PAW double counting   =      2457.61384113    -2667.38446276
  entropy T*S    EENTRO =        -0.00000000
  eigenvalues    EBANDS =      -118.48587742
  atomic energy  EATOM  =      2780.07275915
  ---------------------------------------------------
  free energy    TOTEN  =        -3.00281750 eV

  energy without entropy =       -3.00281750  energy(sigma->0) =       -3.00281750


--------------------------------------------------------------------------------------------------------




--------------------------------------- Iteration      1(   5)  ---------------------------------------


    TRIAL :  cpu time      0.2558: real time      0.2558
    CORREC:  cpu time      0.0011: real time      0.0010
    CHARGE:  cpu time      2.0302: real time      2.0316
    --------------------------------------------
      LOOP:  cpu time      2.2899: real time      2.2995

 eigenvalue-minimisations  :   144
 total energy-change (2. order) :-0.1839778E-05  (-0.1839777E-05)
 number of electron      22.0000055 magnetization 
 augmentation part       14.1044407 magnetization 

 DIPCOR: dipole corrections for dipol
 direction  3 min pos     1,
 dipolmoment           0.000000      0.000000     -0.000054 electrons x Angstroem
 Tr[quadrupol]     -3980.840351

 energy correction for charged system         0.000000 eV
 dipol+quadrupol energy correction           -0.000000 eV
 added-field ion interaction          0.000077 eV  (added to PSCEN)


 Free energy of the ion-electron system (eV)
  ---------------------------------------------------
  alpha Z        PSCENC =         0.29611279
  Ewald energy   TEWEN  =       323.49978826
  -Hartree energ DENC   =     -2865.65476567
  -exchange      EXHF   =         0.00000000
  -V(xc)+E(xc)   XCENC  =        87.03978703
  PAW double counting   =      2457.61384113    -2667.38446276
  entropy T*S    EENTRO =        -0.00000000
  eigenvalues    EBANDS =      -118.48587926
  atomic energy  EATOM  =      2780.07275915
  ---------------------------------------------------
  free energy    TOTEN  =        -3.00281934 eV

  energy without entropy =       -3.00281934  energy(sigma->0) =       -3.00281934


--------------------------------------------------------------------------------------------------------




--------------------------------------- Iteration      1(   6)  ---------------------------------------


    POTLOK:  cpu time      0.2573: real time      0.2572
    SETDIJ:  cpu time      0.7348: real time      0.7355
    TRIAL :  cpu time      0.4349: real time      0.4864
    CORREC:  cpu time      3.2041: real time      3.2050
    CHARGE:  cpu time      2.0076: real time      2.0098
    --------------------------------------------
      LOOP:  cpu time      6.6555: real time      6.7191

 eigenvalue-minimisations  :     0
 total energy-change (2. order) : 0.9610931E+00  (-0.2695797E+00)
 number of electron      22.0000056 magnetization 
 augmentation part       14.3041916 magnetization 

 DIPCOR: dipole corrections for dipol
 direction  3 min pos     1,
 dipolmoment           0.000000      0.000000     -0.000951 electrons x Angstroem
 Tr[quadrupol]     -3983.047359

 energy correction for charged system         0.000000 eV
 dipol+quadrupol energy correction           -0.000000 eV
 added-field ion interaction          0.001358 eV  (added to PSCEN)


 Free energy of the ion-electron system (eV)
  ---------------------------------------------------
  alpha Z        PSCENC =         0.29601379
  Ewald energy   TEWEN  =       323.49978826
  -Hartree energ DENC   =     -2862.98860188
  -exchange      EXHF   =         0.00000000
  -V(xc)+E(xc)   XCENC  =        86.15814326
  PAW double counting   =      2522.00265287    -2728.85844844
  entropy T*S    EENTRO =        -0.00000000
  eigenvalues    EBANDS =      -122.22403323
  atomic energy  EATOM  =      2780.07275915
  ---------------------------------------------------
  free energy    TOTEN  =        -2.04172622 eV

  energy without entropy =       -2.04172622  energy(sigma->0) =       -2.04172622


--------------------------------------------------------------------------------------------------------




--------------------------------------- Iteration      1(   7)  ---------------------------------------


    POTLOK:  cpu time      0.2711: real time      0.2708
    SETDIJ:  cpu time      0.7328: real time      0.7336
    TRIAL :  cpu time      0.2370: real time      0.2370
    CORREC:  cpu time      3.1999: real time      3.2016
    CHARGE:  cpu time      2.0205: real time      2.0227
    --------------------------------------------
      LOOP:  cpu time      6.4651: real time      6.4787

 eigenvalue-minimisations  :     0
 total energy-change (2. order) :-0.2611737E+00  (-0.2153468E+00)
 number of electron      22.0000056 magnetization 
 augmentation part       14.2550067 magnetization 

 DIPCOR: dipole corrections for dipol
 direction  3 min pos     1,
 dipolmoment           0.000000      0.000000     -0.001033 electrons x Angstroem
 Tr[quadrupol]     -3982.735429

 energy correction for charged system         0.000000 eV
 dipol+quadrupol energy correction           -0.000000 eV
 added-field ion interaction          0.001475 eV  (added to PSCEN)


 Free energy of the ion-electron system (eV)
  ---------------------------------------------------
  alpha Z        PSCENC =         0.29619187
  Ewald energy   TEWEN  =       323.49978826
  -Hartree energ DENC   =     -2885.78805681
  -exchange      EXHF   =         0.00000000
  -V(xc)+E(xc)   XCENC  =        87.17299166
  PAW double counting   =      2536.09093889    -2750.41754628
  entropy T*S    EENTRO =        -0.00000000
  eigenvalues    EBANDS =       -93.22996665
  atomic energy  EATOM  =      2780.07275915
  ---------------------------------------------------
  free energy    TOTEN  =        -2.30289990 eV

  energy without entropy =       -2.30289990  energy(sigma->0) =       -2.30289990


--------------------------------------------------------------------------------------------------------




--------------------------------------- Iteration      1(   8)  ---------------------------------------


    POTLOK:  cpu time      0.2774: real time      0.2773
    SETDIJ:  cpu time      0.7335: real time      0.7343
    TRIAL :  cpu time      0.2292: real time      0.2292
    CORREC:  cpu time      3.1845: real time      3.1869
    CHARGE:  cpu time      2.0129: real time      2.0143
    --------------------------------------------
      LOOP:  cpu time      6.4476: real time      6.4608

 eigenvalue-minimisations  :     0
 total energy-change (2. order) :-0.2152063E+00  (-0.4045206E-01)
 number of electron      22.0000056 magnetization 
 augmentation part       14.2869875 magnetization 

 DIPCOR: dipole corrections for dipol
 direction  3 min pos     1,
 dipolmoment           0.000000      0.000000     -0.000892 electrons x Angstroem
 Tr[quadrupol]     -3982.585148

 energy correction for charged system         0.000000 eV
 dipol+quadrupol energy correction           -0.000000 eV
 added-field ion interaction          0.001274 eV  (added to PSCEN)


 Free energy of the ion-electron system (eV)
  ---------------------------------------------------
  alpha Z        PSCENC =         0.29765248
  Ewald energy   TEWEN  =       323.49978826
  -Hartree energ DENC   =     -2868.00111866
  -exchange      EXHF   =         0.00000000
  -V(xc)+E(xc)   XCENC  =        86.69880244
  PAW double counting   =      2521.00406396    -2732.44742766
  entropy T*S    EENTRO =        -0.00000000
  eigenvalues    EBANDS =      -113.64262616
  atomic energy  EATOM  =      2780.07275915
  ---------------------------------------------------
  free energy    TOTEN  =        -2.51810618 eV

  energy without entropy =       -2.51810618  energy(sigma->0) =       -2.51810618


--------------------------------------------------------------------------------------------------------




--------------------------------------- Iteration      1(   9)  ---------------------------------------


    POTLOK:  cpu time      0.3761: real time      0.3754
    SETDIJ:  cpu time      0.7341: real time      0.7349
    TRIAL :  cpu time      0.2261: real time      0.2261
    CORREC:  cpu time      3.3458: real time      3.3486
    CHARGE:  cpu time      2.0060: real time      2.0074
    --------------------------------------------
      LOOP:  cpu time      6.6918: real time      6.7237

 eigenvalue-minimisations  :     0
 total energy-change (2. order) :-0.4063784E-01  (-0.9357527E-02)
 number of electron      22.0000056 magnetization 
 augmentation part       14.2550567 magnetization 

 DIPCOR: dipole corrections for dipol
 direction  3 min pos     1,
 dipolmoment           0.000000      0.000000     -0.000393 electrons x Angstroem
 Tr[quadrupol]     -3982.453276

 energy correction for charged system         0.000000 eV
 dipol+quadrupol energy correction           -0.000000 eV
 added-field ion interaction          0.000561 eV  (added to PSCEN)


 Free energy of the ion-electron system (eV)
  ---------------------------------------------------
  alpha Z        PSCENC =         0.29721070
  Ewald energy   TEWEN  =       323.49978826
  -Hartree energ DENC   =     -2873.00953982
  -exchange      EXHF   =         0.00000000
  -V(xc)+E(xc)   XCENC  =        86.90011499
  PAW double counting   =      2527.21585558    -2739.70561845
  entropy T*S    EENTRO =        -0.00000000
  eigenvalues    EBANDS =      -107.82931442
  atomic energy  EATOM  =      2780.07275915
  ---------------------------------------------------
  free energy    TOTEN  =        -2.55874401 eV

  energy without entropy =       -2.55874401  energy(sigma->0) =       -2.55874401


--------------------------------------------------------------------------------------------------------




--------------------------------------- Iteration      1(  10)  ---------------------------------------


    POTLOK:  cpu time      0.2752: real time      0.2756
    SETDIJ:  cpu time      0.7339: real time      0.7339
    TRIAL :  cpu time      0.2180: real time      0.2188
    CORREC:  cpu time      3.1795: real time      3.1814
    CHARGE:  cpu time      1.9970: real time      1.9984
    --------------------------------------------
      LOOP:  cpu time      6.4162: real time      6.4302

 eigenvalue-minimisations  :     0
 total energy-change (2. order) :-0.9343841E-02  (-0.1305866E-01)
 number of electron      22.0000056 magnetization 
 augmentation part       14.2743929 magnetization 

 DIPCOR: dipole corrections for dipol
 direction  3 min pos     1,
 dipolmoment           0.000000      0.000000     -0.000150 electrons x Angstroem
 Tr[quadrupol]     -3982.437949

 energy correction for charged system         0.000000 eV
 dipol+quadrupol energy correction           -0.000000 eV
 added-field ion interaction          0.000214 eV  (added to PSCEN)


 Free energy of the ion-electron system (eV)
  ---------------------------------------------------
  alpha Z        PSCENC =         0.29681056
  Ewald energy   TEWEN  =       323.49978826
  -Hartree energ DENC   =     -2868.87175303
  -exchange      EXHF   =         0.00000000
  -V(xc)+E(xc)   XCENC  =        86.73111121
  PAW double counting   =      2525.01623525    -2736.14307817
  entropy T*S    EENTRO =        -0.00000000
  eigenvalues    EBANDS =      -113.16996109
  atomic energy  EATOM  =      2780.07275915
  ---------------------------------------------------
  free energy    TOTEN  =        -2.56808786 eV

  energy without entropy =       -2.56808786  energy(sigma->0) =       -2.56808786


--------------------------------------------------------------------------------------------------------




--------------------------------------- Iteration      1(  11)  ---------------------------------------


    POTLOK:  cpu time      0.2641: real time      0.2646
    SETDIJ:  cpu time      0.7334: real time      0.7343
    TRIAL :  cpu time      0.2027: real time      0.2028
    CORREC:  cpu time      3.2532: real time      3.2553
    CHARGE:  cpu time      1.9931: real time      1.9955
    --------------------------------------------
      LOOP:  cpu time      6.4647: real time      6.4709

 eigenvalue-minimisations  :     0
 total energy-change (2. order) :-0.1309716E-01  (-0.2027681E-02)
 number of electron      22.0000056 magnetization 
 augmentation part       14.2689285 magnetization 

 DIPCOR: dipole corrections for dipol
 direction  3 min pos     1,
 dipolmoment           0.000000      0.000000     -0.000004 electrons x Angstroem
 Tr[quadrupol]     -3982.385918

 energy correction for charged system         0.000000 eV
 dipol+quadrupol energy correction           -0.000000 eV
 added-field ion interaction          0.000006 eV  (added to PSCEN)


 Free energy of the ion-electron system (eV)
  ---------------------------------------------------
  alpha Z        PSCENC =         0.29610157
  Ewald energy   TEWEN  =       323.49978826
  -Hartree energ DENC   =     -2871.31989016
  -exchange      EXHF   =         0.00000000
  -V(xc)+E(xc)   XCENC  =        86.83562497
  PAW double counting   =      2526.60785293    -2738.21410023
  entropy T*S    EENTRO =        -0.00000000
  eigenvalues    EBANDS =      -110.35932150
  atomic energy  EATOM  =      2780.07275915
  ---------------------------------------------------
  free energy    TOTEN  =        -2.58118501 eV

  energy without entropy =       -2.58118501  energy(sigma->0) =       -2.58118501


--------------------------------------------------------------------------------------------------------




--------------------------------------- Iteration      1(  12)  ---------------------------------------


    POTLOK:  cpu time      0.2556: real time      0.2551
    SETDIJ:  cpu time      0.7334: real time      0.7342
    TRIAL :  cpu time      0.1998: real time      0.1998
    CORREC:  cpu time      3.1366: real time      3.1390
    CHARGE:  cpu time      1.9949: real time      1.9972
    --------------------------------------------
      LOOP:  cpu time      6.3377: real time      6.3430

 eigenvalue-minimisations  :     0
 total energy-change (2. order) :-0.2024910E-02  (-0.4000470E-03)
 number of electron      22.0000056 magnetization 
 augmentation part       14.2762534 magnetization 

 DIPCOR: dipole corrections for dipol
 direction  3 min pos     1,
 dipolmoment           0.000000      0.000000      0.000011 electrons x Angstroem
 Tr[quadrupol]     -3982.356744

 energy correction for charged system         0.000000 eV
 dipol+quadrupol energy correction           -0.000000 eV
 added-field ion interaction         -0.000016 eV  (added to PSCEN)


 Free energy of the ion-electron system (eV)
  ---------------------------------------------------
  alpha Z        PSCENC =         0.29602023
  Ewald energy   TEWEN  =       323.49978826
  -Hartree energ DENC   =     -2869.71985799
  -exchange      EXHF   =         0.00000000
  -V(xc)+E(xc)   XCENC  =        86.78129863
  PAW double counting   =      2524.89816266    -2736.22549923
  entropy T*S    EENTRO =        -0.00000000
  eigenvalues    EBANDS =      -112.18588163
  atomic energy  EATOM  =      2780.07275915
  ---------------------------------------------------
  free energy    TOTEN  =        -2.58320992 eV

  energy without entropy =       -2.58320992  energy(sigma->0) =       -2.58320992


--------------------------------------------------------------------------------------------------------




--------------------------------------- Iteration      1(  13)  ---------------------------------------


    POTLOK:  cpu time      0.2480: real time      0.2480
    SETDIJ:  cpu time      0.7351: real time      0.7360
    TRIAL :  cpu time      0.2030: real time      0.2030
    CORREC:  cpu time      3.1389: real time      3.1409
    CHARGE:  cpu time      1.9923: real time      1.9946
    --------------------------------------------
      LOOP:  cpu time      6.3226: real time      6.3360

 eigenvalue-minimisations  :     0
 total energy-change (2. order) :-0.3984441E-03  (-0.2542906E-03)
 number of electron      22.0000056 magnetization 
 augmentation part       14.2751747 magnetization 

 DIPCOR: dipole corrections for dipol
 direction  3 min pos     1,
 dipolmoment           0.000000      0.000000      0.000014 electrons x Angstroem
 Tr[quadrupol]     -3982.360254

 energy correction for charged system         0.000000 eV
 dipol+quadrupol energy correction           -0.000000 eV
 added-field ion interaction         -0.000020 eV  (added to PSCEN)


 Free energy of the ion-electron system (eV)
  ---------------------------------------------------
  alpha Z        PSCENC =         0.29601656
  Ewald energy   TEWEN  =       323.49978826
  -Hartree energ DENC   =     -2870.53650704
  -exchange      EXHF   =         0.00000000
  -V(xc)+E(xc)   XCENC  =        86.81631056
  PAW double counting   =      2525.31141305    -2736.91558394
  entropy T*S    EENTRO =        -0.00000000
  eigenvalues    EBANDS =      -111.12780497
  atomic energy  EATOM  =      2780.07275915
  ---------------------------------------------------
  free energy    TOTEN  =        -2.58360837 eV

  energy without entropy =       -2.58360837  energy(sigma->0) =       -2.58360837


--------------------------------------------------------------------------------------------------------




--------------------------------------- Iteration      1(  14)  ---------------------------------------


    POTLOK:  cpu time      0.2503: real time      0.2505
    SETDIJ:  cpu time      0.7347: real time      0.7353
    TRIAL :  cpu time      0.1996: real time      0.1995
    CORREC:  cpu time      3.1354: real time      3.1375
    CHARGE:  cpu time      2.0004: real time      2.0028
    --------------------------------------------
      LOOP:  cpu time      6.3355: real time      6.3411

 eigenvalue-minimisations  :     0
 total energy-change (2. order) :-0.2544310E-03  (-0.5834065E-04)
 number of electron      22.0000056 magnetization 
 augmentation part       14.2756148 magnetization 

 DIPCOR: dipole corrections for dipol
 direction  3 min pos     1,
 dipolmoment           0.000000      0.000000      0.000014 electrons x Angstroem
 Tr[quadrupol]     -3982.358704

 energy correction for charged system         0.000000 eV
 dipol+quadrupol energy correction           -0.000000 eV
 added-field ion interaction         -0.000020 eV  (added to PSCEN)


 Free energy of the ion-electron system (eV)
  ---------------------------------------------------
  alpha Z        PSCENC =         0.29601623
  Ewald energy   TEWEN  =       323.49978826
  -Hartree energ DENC   =     -2870.32215182
  -exchange      EXHF   =         0.00000000
  -V(xc)+E(xc)   XCENC  =        86.80786997
  PAW double counting   =      2525.13421796    -2736.69245442
  entropy T*S    EENTRO =        -0.00000000
  eigenvalues    EBANDS =      -111.37990813
  atomic energy  EATOM  =      2780.07275915
  ---------------------------------------------------
  free energy    TOTEN  =        -2.58386280 eV

  energy without entropy =       -2.58386280  energy(sigma->0) =       -2.58386280


--------------------------------------------------------------------------------------------------------




--------------------------------------- Iteration      1(  15)  ---------------------------------------


    POTLOK:  cpu time      0.2475: real time      0.2475
    SETDIJ:  cpu time      0.7339: real time      0.7347
    TRIAL :  cpu time      0.2065: real time      0.2065
    CORREC:  cpu time      3.1311: real time      3.1341
    CHARGE:  cpu time      1.9983: real time      1.9998
    --------------------------------------------
      LOOP:  cpu time      6.3243: real time      6.3383

 eigenvalue-minimisations  :     0
 total energy-change (2. order) :-0.5857424E-04  (-0.5019809E-05)
 number of electron      22.0000056 magnetization 
 augmentation part       14.2748048 magnetization 

 DIPCOR: dipole corrections for dipol
 direction  3 min pos     1,
 dipolmoment           0.000000      0.000000      0.000014 electrons x Angstroem
 Tr[quadrupol]     -3982.358256

 energy correction for charged system         0.000000 eV
 dipol+quadrupol energy correction           -0.000000 eV
 added-field ion interaction         -0.000020 eV  (added to PSCEN)


 Free energy of the ion-electron system (eV)
  ---------------------------------------------------
  alpha Z        PSCENC =         0.29601627
  Ewald energy   TEWEN  =       323.49978826
  -Hartree energ DENC   =     -2870.45105461
  -exchange      EXHF   =         0.00000000
  -V(xc)+E(xc)   XCENC  =        86.81250886
  PAW double counting   =      2525.32404046    -2736.89393125
  entropy T*S    EENTRO =        -0.00000000
  eigenvalues    EBANDS =      -111.24404852
  atomic energy  EATOM  =      2780.07275915
  ---------------------------------------------------
  free energy    TOTEN  =        -2.58392137 eV

  energy without entropy =       -2.58392137  energy(sigma->0) =       -2.58392137


--------------------------------------------------------------------------------------------------------




--------------------------------------- Iteration      1(  16)  ---------------------------------------


    POTLOK:  cpu time      0.2531: real time      0.2529
    SETDIJ:  cpu time      0.7326: real time      0.7334
    TRIAL :  cpu time      0.2025: real time      0.2025
    CORREC:  cpu time      3.1291: real time      3.1322
    CHARGE:  cpu time      1.9995: real time      2.0010
    --------------------------------------------
      LOOP:  cpu time      6.3307: real time      6.3363

 eigenvalue-minimisations  :     0
 total energy-change (2. order) :-0.5092004E-05  (-0.5136817E-05)
 number of electron      22.0000056 magnetization 
 augmentation part       14.2751490 magnetization 

 DIPCOR: dipole corrections for dipol
 direction  3 min pos     1,
 dipolmoment           0.000000      0.000000      0.000014 electrons x Angstroem
 Tr[quadrupol]     -3982.358946

 energy correction for charged system         0.000000 eV
 dipol+quadrupol energy correction           -0.000000 eV
 added-field ion interaction         -0.000020 eV  (added to PSCEN)


 Free energy of the ion-electron system (eV)
  ---------------------------------------------------
  alpha Z        PSCENC =         0.29601601
  Ewald energy   TEWEN  =       323.49978826
  -Hartree energ DENC   =     -2870.35030128
  -exchange      EXHF   =         0.00000000
  -V(xc)+E(xc)   XCENC  =        86.80827049
  PAW double counting   =      2525.26555802    -2736.80444163
  entropy T*S    EENTRO =        -0.00000000
  eigenvalues    EBANDS =      -111.37157550
  atomic energy  EATOM  =      2780.07275915
  ---------------------------------------------------
  free energy    TOTEN  =        -2.58392647 eV

  energy without entropy =       -2.58392647  energy(sigma->0) =       -2.58392647


--------------------------------------------------------------------------------------------------------




--------------------------------------- Iteration      1(  17)  ---------------------------------------


    POTLOK:  cpu time      0.2467: real time      0.2466
    SETDIJ:  cpu time      0.7336: real time      0.7343
    TRIAL :  cpu time      0.2048: real time      0.2048
    CORREC:  cpu time      3.2564: real time      3.2595
    CHARGE:  cpu time      2.0296: real time      2.0313
    --------------------------------------------
      LOOP:  cpu time      6.4757: real time      6.4899

 eigenvalue-minimisations  :     0
 total energy-change (2. order) :-0.5138080E-05  (-0.1264405E-05)
 number of electron      22.0000056 magnetization 
 augmentation part       14.2751659 magnetization 

 DIPCOR: dipole corrections for dipol
 direction  3 min pos     1,
 dipolmoment           0.000000      0.000000      0.000014 electrons x Angstroem
 Tr[quadrupol]     -3982.359229

 energy correction for charged system         0.000000 eV
 dipol+quadrupol energy correction           -0.000000 eV
 added-field ion interaction         -0.000020 eV  (added to PSCEN)


 Free energy of the ion-electron system (eV)
  ---------------------------------------------------
  alpha Z        PSCENC =         0.29601549
  Ewald energy   TEWEN  =       323.49978826
  -Hartree energ DENC   =     -2870.40816093
  -exchange      EXHF   =         0.00000000
  -V(xc)+E(xc)   XCENC  =        86.81036543
  PAW double counting   =      2525.30586586    -2736.86089937
  entropy T*S    EENTRO =        -0.00000000
  eigenvalues    EBANDS =      -111.29966550
  atomic energy  EATOM  =      2780.07275915
  ---------------------------------------------------
  free energy    TOTEN  =        -2.58393160 eV

  energy without entropy =       -2.58393160  energy(sigma->0) =       -2.58393160


--------------------------------------------------------------------------------------------------------




--------------------------------------- Iteration      1(  18)  ---------------------------------------


    POTLOK:  cpu time      0.2600: real time      0.2599
    SETDIJ:  cpu time      0.7385: real time      0.7393
    TRIAL :  cpu time      0.2530: real time      0.2530
    CORREC:  cpu time      3.1847: real time      3.1872
    CHARGE:  cpu time      2.0243: real time      2.0258
    --------------------------------------------
      LOOP:  cpu time      6.4679: real time      6.4817

 eigenvalue-minimisations  :     0
 total energy-change (2. order) :-0.1279852E-05  (-0.3413427E-06)
 number of electron      22.0000056 magnetization 
 augmentation part       14.2749974 magnetization 

 DIPCOR: dipole corrections for dipol
 direction  3 min pos     1,
 dipolmoment           0.000000      0.000000      0.000014 electrons x Angstroem
 Tr[quadrupol]     -3982.359414

 energy correction for charged system         0.000000 eV
 dipol+quadrupol energy correction           -0.000000 eV
 added-field ion interaction         -0.000020 eV  (added to PSCEN)


 Free energy of the ion-electron system (eV)
  ---------------------------------------------------
  alpha Z        PSCENC =         0.29601542
  Ewald energy   TEWEN  =       323.49978826
  -Hartree energ DENC   =     -2870.39509731
  -exchange      EXHF   =         0.00000000
  -V(xc)+E(xc)   XCENC  =        86.81009447
  PAW double counting   =      2525.27391103    -2736.83037945
  entropy T*S    EENTRO =        -0.00000000
  eigenvalues    EBANDS =      -111.31102445
  atomic energy  EATOM  =      2780.07275915
  ---------------------------------------------------
  free energy    TOTEN  =        -2.58393288 eV

  energy without entropy =       -2.58393288  energy(sigma->0) =       -2.58393288


--------------------------------------------------------------------------------------------------------




--------------------------------------- Iteration      1(  19)  ---------------------------------------


    POTLOK:  cpu time      0.2492: real time      0.2492
    SETDIJ:  cpu time      0.7328: real time      0.7337
    TRIAL :  cpu time      0.2674: real time      0.2683
    CORREC:  cpu time      3.2429: real time      3.2447
    EDDIAG:  cpu time      0.2141: real time      0.2087
    CHARGE:  cpu time      2.0168: real time      2.0191
    --------------------------------------------
      LOOP:  cpu time      6.7416: real time      6.7504

 eigenvalue-minimisations  :     0
 total energy-change (2. order) :-0.2622055E-06  (-0.6465364E-07)
 number of electron      22.0000056 magnetization 
 augmentation part       14.2750585 magnetization 

 DIPCOR: dipole corrections for dipol
 direction  3 min pos     1,
 dipolmoment           0.000000      0.000000      0.000014 electrons x Angstroem
 Tr[quadrupol]     -3982.359905

 energy correction for charged system         0.000000 eV
 dipol+quadrupol energy correction           -0.000000 eV
 added-field ion interaction         -0.000020 eV  (added to PSCEN)


 Free energy of the ion-electron system (eV)
  ---------------------------------------------------
  alpha Z        PSCENC =         0.29601554
  Ewald energy   TEWEN  =       323.49978826
  -Hartree energ DENC   =     -2870.37344213
  -exchange      EXHF   =         0.00000000
  -V(xc)+E(xc)   XCENC  =        86.80919044
  PAW double counting   =      2525.26220193    -2736.81267710
  entropy T*S    EENTRO =        -0.00000000
  eigenvalues    EBANDS =      -111.33776924
  atomic energy  EATOM  =      2780.07275915
  ---------------------------------------------------
  free energy    TOTEN  =        -2.58393315 eV

  energy without entropy =       -2.58393315  energy(sigma->0) =       -2.58393315


--------------------------------------------------------------------------------------------------------


  average scaling for gradient   0.9240


 average (electrostatic) potential at core
  the test charge radii are     0.9430
  (the norm of the test charge is              1.0000)
       1 -73.6390       2 -73.6390
 
 
 
 E-fermi :  -4.3167     XC(G=0):  -0.1526     alpha+bet : -0.0321

 Fermi energy:        -4.3167015053

 k-point     1 :       0.0000    0.0000    0.0000
  band No.  band energies     occupation 
      1      -6.3258      2.00000
      2      -5.5150      2.00000
      3      -5.5150      2.00000
      4      -5.0520      2.00000
      5      -4.9880      2.00000
      6      -4.9880      2.00000
      7      -4.7621      2.00000
      8      -4.7621      2.00000
      9      -4.5897      2.00000
     10      -4.5897      2.00000
     11      -4.5616      2.00000
     12      -3.0204      0.00000
     13      -1.0725      0.00000
     14      -1.0725      0.00000
     15      -0.5802      0.00000
     16       0.0319      0.00000
     17       0.2421      0.00000
     18       0.2681      0.00000
     19       0.3304      0.00000
     20       0.3454      0.00000
     21       0.3455      0.00000
     22       0.3911      0.00000
     23       0.3992      0.00000
     24       0.3992      0.00000
     25       0.5495      0.00000
     26       0.6045      0.00000
     27       0.6052      0.00000
     28       0.6283      0.00000
     29       0.6486      0.00000
     30       0.6544      0.00000
     31       0.6545      0.00000
     32       0.6806      0.00000
     33       0.6807      0.00000
     34       0.7379      0.00000
     35       0.7910      0.00000
     36       0.7913      0.00000
     37       0.9119      0.00000
     38       0.9418      0.00000
     39       0.9518      0.00000
     40       0.9958      0.00000
     41       0.9959      0.00000
     42       0.9963      0.00000
     43       1.1300      0.00000
     44       1.1300      0.00000
     45       1.1308      0.00000
     46       1.1908      0.00000
     47       1.2028      0.00000
     48       1.3265      0.00000


--------------------------------------------------------------------------------------------------------


 soft charge-density along one line, spin component           1
         0         1         2         3         4         5         6         7         8         9
 total charge-density along one line
 
 pseudopotential strength for first ion, spin component:           1
 -9.912  -0.000   0.000   0.000   0.000   0.535   0.000  -0.000
 -0.000  -9.980   0.000  -0.000  -0.000   0.000   0.587  -0.000
  0.000   0.000 -10.014  -0.000   0.000  -0.000  -0.000   0.610
  0.000  -0.000  -0.000  -9.980  -0.000  -0.000   0.000   0.000
  0.000  -0.000   0.000  -0.000  -9.912  -0.000   0.000  -0.000
  0.535   0.000  -0.000  -0.000  -0.000   6.667  -0.000   0.000
  0.000   0.587  -0.000   0.000   0.000  -0.000   6.634   0.000
 -0.000  -0.000   0.610   0.000  -0.000   0.000   0.000   6.620
 -0.000   0.000   0.000   0.587   0.000   0.000  -0.000  -0.000
 -0.000   0.000  -0.000   0.000   0.535   0.000  -0.000   0.000
  0.000  -0.000   0.012   0.000   0.000   0.000  -0.000   0.003
  0.000  -0.000   0.022   0.000   0.000   0.000  -0.000   0.008
 -0.000   0.031  -0.000  -0.000  -0.000   0.000  -0.011   0.000
 -0.000   0.000   0.034  -0.000  -0.000  -0.000  -0.000  -0.013
  0.000  -0.000   0.000   0.031  -0.000  -0.000  -0.000  -0.000
 -0.000   0.032  -0.000   0.000  -0.000  -0.000  -0.006  -0.000
  0.000   0.000   0.036  -0.000   0.000  -0.000   0.000  -0.008
  0.000   0.000   0.000   0.032  -0.000   0.000  -0.000   0.000
 total augmentation occupancy for first ion, spin component:           1
  1.987  -0.000   0.000   0.000   0.000  -0.018   0.000   0.000  -0.000   0.000   0.000   0.000   0.000  -0.000  -0.000  -0.000
 -0.000   1.977  -0.000   0.000   0.000   0.000  -0.005   0.000  -0.000  -0.000  -0.000  -0.000  -0.055   0.000  -0.000   0.047
  0.000  -0.000   1.965   0.000  -0.000   0.000   0.000   0.013   0.000   0.000  -0.118  -0.006   0.000  -0.132   0.000  -0.000
  0.000   0.000   0.000   1.977   0.000   0.000   0.000  -0.000  -0.005   0.000   0.000   0.000   0.000  -0.000  -0.055   0.000
  0.000   0.000  -0.000   0.000   1.987   0.000  -0.000   0.000   0.000  -0.018   0.000   0.000   0.000   0.000   0.000   0.000
 -0.018   0.000   0.000  -0.000   0.000   0.000   0.000  -0.000  -0.000   0.000   0.000   0.000   0.000   0.000   0.000   0.000
 -0.000  -0.005   0.000   0.000  -0.000   0.000   0.004   0.000  -0.000  -0.000  -0.000  -0.000  -0.006   0.000   0.000   0.000
  0.000   0.000   0.013   0.000   0.000  -0.000  -0.000   0.009  -0.000  -0.000   0.086  -0.004   0.000  -0.022  -0.000   0.000
  0.000  -0.000   0.000  -0.005   0.000  -0.000  -0.000  -0.000   0.004   0.000   0.000   0.000   0.000  -0.000  -0.006   0.000
  0.000  -0.000   0.000   0.000  -0.018   0.000  -0.000  -0.000   0.000   0.000  -0.000   0.000  -0.000   0.000  -0.000  -0.000
  0.000  -0.000  -0.118   0.000   0.000   0.000  -0.000   0.086   0.000  -0.000   1.440  -0.053  -0.000  -0.253  -0.000   0.000
  0.000  -0.000  -0.006  -0.000   0.000   0.000  -0.000  -0.004   0.000   0.000  -0.053   0.002  -0.000   0.011  -0.000   0.000
  0.000  -0.055  -0.000   0.000   0.000   0.000  -0.006   0.000   0.000  -0.000  -0.000  -0.000   0.014   0.000  -0.000  -0.002
  0.000  -0.000  -0.132  -0.000   0.000   0.000   0.000  -0.022  -0.000   0.000  -0.253   0.011   0.000   0.065   0.000  -0.000
 -0.000  -0.000  -0.000  -0.055   0.000   0.000   0.000  -0.000  -0.006  -0.000  -0.000  -0.000  -0.000   0.000   0.014   0.000
 -0.000   0.047  -0.000   0.000   0.000   0.000   0.000   0.000   0.000  -0.000   0.000   0.000  -0.002  -0.000   0.000   0.001
  0.000   0.000   0.054   0.000  -0.000   0.000   0.000   0.002   0.000  -0.000   0.024  -0.001   0.000  -0.009   0.000  -0.000
  0.000   0.000  -0.000   0.047   0.000  -0.000   0.000   0.000   0.000  -0.000   0.000  -0.000   0.000  -0.000  -0.002  -0.000


------------------------ aborting loop because EDIFF is reached ----------------------------------------


    FORLOC:  cpu time      0.0131: real time      0.0131
    FORNL :  cpu time      0.0507: real time      0.0507
    STRESS:  cpu time      0.1384: real time      0.1385
    FORCOR:  cpu time      0.2367: real time      0.2361
    OFIELD:  cpu time      0.0002: real time      0.0002

 ---------------------------------------------------------------------------------------------

         DFTD3 V3.0 Rev 1        
 IVDW         = 11
 DF revpbe    
 parameters
 VDW_S6       =    1.0000
 VDW_S8       =    1.0100
 VDW_SR       =    0.9230
 rs18     =    1.0000
 alpha6   =   14.0000
 alpha8   =   16.0000
 k1-k3    =   16.0000    1.3333   -4.0000
 VDW_RADIUS   =   50.2022 A
 VDW_CNRADIUS =   21.1671 A
 Edisp (eV)   -0.00307

 E6    (eV) :    -0.0018
 E8    (eV) :    -0.0013
 % E8        : 40.74
    FORVDW:  cpu time      0.0145: real time      0.0145

  FORCE on cell =-STRESS in cart. coord.  units (eV):
  Direction    XX          YY          ZZ          XY          YZ          ZX
  --------------------------------------------------------------------------------------
  Alpha Z     0.29604     0.29604     0.29604
  Ewald    -147.49551  -147.49551   618.49085    -0.00000    -0.00000     0.00000
  Hartree   769.51689   769.51689  1331.34905    -0.00000     0.00000    -0.00000
  E(xc)    -128.95672  -128.95672  -128.21939     0.00000     0.00000     0.00000
  Local    -811.31536  -811.31536 -2124.81173     0.00000    -0.00000     0.00000
  n-local   -52.79029   -52.79028   -56.39252    -0.00001     0.00000    -0.00000
  augment   186.78951   186.78951   181.20140    -0.00000    -0.00000     0.00000
  Kinetic   183.91757   183.91757   178.26488     0.00000    -0.00000     0.00000
  Fock        0.00000     0.00000     0.00000     0.00000     0.00000     0.00000
  vdW        -0.00004    -0.00004     0.02460     0.00000    -0.00000     0.00000
  -------------------------------------------------------------------------------------
  Total      -0.03789    -0.03789     0.20317     0.00000     0.00000    -0.00000
  in kB      -0.00614    -0.00614     0.03294     0.00000     0.00000    -0.00000
  external pressure =        0.01 kB  Pullay stress =        0.00 kB


 VOLUME and BASIS-vectors are now :
 -----------------------------------------------------------------------------
  energy-cutoff  :      520.00
  volume of cell :     9881.61
      direct lattice vectors                 reciprocal lattice vectors
    21.138852197  0.000000000  0.000000000     0.047306258  0.000000000  0.000000000
     0.000000000 21.138852197  0.000000000     0.000000000  0.047306258  0.000000000
     0.000000000  0.000000000 22.113885220     0.000000000  0.000000000  0.045220457

  length of vectors
    21.138852197 21.138852197 22.113885220     0.047306258  0.047306258  0.045220457


 FORCES acting on ions:
    Electron-Ion                     Ewald-Force                    Non-Local-Force
 -----------------------------------------------------------------------------------------------
   0.980E-05 -.817E-04 -.363E+03   -.174E-16 0.142E-16 0.350E+03   -.790E-22 0.121E-21 0.137E+02
   0.980E-05 -.817E-04 0.363E+03   0.130E-16 0.139E-16 -.350E+03   0.800E-22 -.118E-21 -.137E+02
 -----------------------------------------------------------------------------------------------
   0.200E-04 -.165E-03 -.756E-04   -.445E-17 0.281E-16 0.000E+00   0.947E-24 0.291E-23 0.178E-14
 
 
 POSITION                                       TOTAL-FORCE (eV/Angst)
 -----------------------------------------------------------------------------------
      9.51248      9.51248     15.45078        -0.000000     -0.000000      0.108260
      9.51248      9.51248     13.22359         0.000000      0.000000     -0.108260
 -----------------------------------------------------------------------------------
    total drift:                                0.000020     -0.000165     -0.000076


--------------------------------------------------------------------------------------------------------



  FREE ENERGIE OF THE ION-ELECTRON SYSTEM (eV)
  ---------------------------------------------------
  free  energy   TOTEN  =        -2.58700761 eV

  energy  without entropy=       -2.58700761  energy(sigma->0) =       -2.58700761
 


--------------------------------------------------------------------------------------------------------


    POTLOK:  cpu time      0.9992: real time      0.9999


--------------------------------------------------------------------------------------------------------


     LOOP+:  cpu time     97.2965: real time     97.6119
    4ORBIT:  cpu time      0.0000: real time      0.0000

 total amount of memory used by VASP MPI-rank0    58517. kBytes
=======================================================================

   base      :      30000. kBytes
   nonlr-proj:        374. kBytes
   fftplans  :      11368. kBytes
   grid      :      15959. kBytes
   one-center:         15. kBytes
   wavefun   :        801. kBytes
 
  
  
 General timing and accounting informations for this job:
 ========================================================
  
                  Total CPU time used (sec):      113.000
                            User time (sec):      111.651
                          System time (sec):        1.349
                         Elapsed time (sec):      114.818
  
                   Maximum memory used (kb):      821020.
                   Average memory used (kb):          N/A
  
                          Minor page faults:        35164
                          Major page faults:            0
                 Voluntary context switches:         5981
