 vasp.6.4.0 14Feb23 (build Dec 05 2023 14:15:48) complex                        
  
 executed on             LinuxIFC date 2023.12.06  04:22:37
 running  256 mpi-ranks, with    1 threads/rank, on   16 nodes
 distrk:  each k-point on  256 cores,    1 groups
 distr:  one band on NCORE=   8 cores,   32 groups


--------------------------------------------------------------------------------------------------------


 INCAR:
   SYSTEM = MgO-rocksalt
   ISMEAR = 0
   SIGMA = 0.05
   EDIFF = 1E-4
   ALGO = ALL
   ISTART = 0
   IBRION = -1
   NSW = 0
   ISYM = 0
   DIPOL = 0.5 0.5 0.5
   IDIPOL = 3
   LDIPOL = .TRUE.
   METAGGA = M06L
   ENCUT = 520
   PREC = Accurate
   LASPH = .TRUE.
   LREAL = Auto
   ISPIN = 1
   NELM = 2000
   NELMIN = 8
   NCORE = 8
   LWAVE = .FALSE.
   LCHARG = .FALSE.

 POTCAR:    PAW_PBE Au 04Oct2007                  
 POTCAR:    PAW_PBE Mg_pv 13Apr2007               
 POTCAR:    PAW_PBE O 08Apr2002                   
 POTCAR:    PAW_PBE Au 04Oct2007                  
   SHA256 =  d0044ae04e2bdce24051b198fc5c053d722a5bc6fe3c3b100514a13fc5d2db88 Au/POTCAR             
   COPYR  = (c) Copyright 04Oct2007 Georg Kresse                                                    
   COPYR  = This file is part of the software VASP. Any use, copying, and all other rights are regul
   COPYR  = If you do not have a valid VASP license, you may not use, copy or distribute this file. 
   VRHFIN =Au: s1d10                                                                                
   LEXCH  = PE                                                                                      
   EATOM  =   926.0867 eV,   68.0654 Ry                                                             
                                                                                                    
   TITEL  = PAW_PBE Au 04Oct2007                                                                    
   LULTRA =        F    use ultrasoft PP ?                                                          
   IUNSCR =        1    unscreen: 0-lin 1-nonlin 2-no                                               
   RPACOR =    2.330    partial core radius                                                         
   POMASS =  196.966; ZVAL   =   11.000    mass and valenz                                          
   RCORE  =    2.500    outmost cutoff radius                                                       
   RWIGS  =    2.840; RWIGS  =    1.503    wigner-seitz radius (au A)                               
   ENMAX  =  229.943; ENMIN  =  172.457 eV                                                          
   ICORE  =        3    local potential                                                             
   LCOR   =        T    correct aug charges                                                         
   LPAW   =        T    paw PP                                                                      
   EAUG   =  356.670                                                                                
   DEXC   =    0.000                                                                                
   RMAX   =    2.562    core radius for proj-oper                                                   
   RAUG   =    1.300    factor for augmentation sphere                                              
   RDEP   =    2.598    radius for radial grids                                                     
   RDEPT  =    2.193    core radius for aug-charge                                                  
                                                                                                    
   Atomic configuration                                                                             
   16 entries                                                                                       
     n  l   j            E        occ.                                                              
     1  0  0.50    -80748.5001   2.0000                                                             
     2  0  0.50    -14244.7466   2.0000                                                             
     2  1  1.50    -12310.9591   6.0000                                                             
     3  0  0.50     -3362.1768   2.0000                                                             
     3  1  1.50     -2801.5463   6.0000                                                             
     3  2  2.50     -2203.8206  10.0000                                                             
     4  0  0.50      -729.8168   2.0000                                                             
     4  1  1.50      -546.0527   6.0000                                                             
     4  2  2.50      -325.7302  10.0000                                                             
     4  3  3.50       -81.1472  14.0000                                                             
     5  0  0.50      -108.3201   2.0000                                                             
     5  1  1.50       -59.7479   6.0000                                                             
     5  2  2.50        -6.8783  10.0000                                                             
     6  0  0.50        -5.7602   1.0000                                                             
     6  1  1.50        -6.8029   0.0000                                                             
     5  3  2.50        -1.3606   0.0000                                                             
   Description                                                                                      
     l       E           TYP  RCUT    TYP  RCUT                                                     
     2     -6.8782861     23  2.500                                                                 
     2     -8.2388687     23  2.500                                                                 
     0     -5.7601759     23  2.500                                                                 
     0     -0.8493231     23  2.500                                                                 
     1     -2.7211652     23  2.500                                                                 
     1     27.2116520     23  2.500                                                                 
     3     -1.3605826     23  2.500                                                                 
  local pseudopotential read in
  partial core-charges read in
  partial kinetic energy density read in
  atomic valenz-charges read in
  non local Contribution for L=           2  read in
    real space projection operators read in
  non local Contribution for L=           2  read in
    real space projection operators read in
  non local Contribution for L=           0  read in
    real space projection operators read in
  non local Contribution for L=           0  read in
    real space projection operators read in
  non local Contribution for L=           1  read in
    real space projection operators read in
  non local Contribution for L=           1  read in
    real space projection operators read in
    PAW grid and wavefunctions read in
 
   number of l-projection  operators is LMAX  =           6
   number of lm-projection operators is LMMAX =          18
 
 POTCAR:    PAW_PBE Mg_pv 13Apr2007               
   SHA256 =  f474ac0dd33840b9ae76c01d57fea79fdf77cdfbb07d5ade72c65f83c709b62b Mg_pv/POTCAR          
   COPYR  = (c) Copyright 13Apr2007 Georg Kresse                                                    
   COPYR  = This file is part of the software VASP. Any use, copying, and all other rights are regul
   COPYR  = If you do not have a valid VASP license, you may not use, copy or distribute this file. 
   VRHFIN =Mg: p6s2                                                                                 
   LEXCH  = PE                                                                                      
   EATOM  =  1056.7344 eV,   77.6678 Ry                                                             
                                                                                                    
   TITEL  = PAW_PBE Mg_pv 13Apr2007                                                                 
   LULTRA =        F    use ultrasoft PP ?                                                          
   IUNSCR =        1    unscreen: 0-lin 1-nonlin 2-no                                               
   RPACOR =    1.500    partial core radius                                                         
   POMASS =   24.305; ZVAL   =    8.000    mass and valenz                                          
   RCORE  =    2.000    outmost cutoff radius                                                       
   RWIGS  =    2.000; RWIGS  =    1.058    wigner-seitz radius (au A)                               
   ENMAX  =  403.929; ENMIN  =  302.947 eV                                                          
   RCLOC  =    1.506    cutoff for local pot                                                        
   LCOR   =        T    correct aug charges                                                         
   LPAW   =        T    paw PP                                                                      
   EAUG   =  758.780                                                                                
   DEXC   =    0.000                                                                                
   RMAX   =    2.045    core radius for proj-oper                                                   
   RAUG   =    1.300    factor for augmentation sphere                                              
   RDEP   =    2.025    radius for radial grids                                                     
   RDEPT  =    1.557    core radius for aug-charge                                                  
                                                                                                    
   Atomic configuration                                                                             
    5 entries                                                                                       
     n  l   j            E        occ.                                                              
     1  0  0.50     -1259.6230   2.0000                                                             
     2  0  0.50       -79.8442   2.0000                                                             
     2  1  1.50       -46.6121   6.0000                                                             
     3  0  0.50        -4.7055   2.0000                                                             
     3  2  1.50        -1.3606   0.0000                                                             
   Description                                                                                      
     l       E           TYP  RCUT    TYP  RCUT                                                     
     1    -46.6121073     23  1.600                                                                 
     1      2.7211652     23  1.600                                                                 
     0     -4.7054661     23  2.000                                                                 
     0     61.2262170     23  2.000                                                                 
     2     -1.3605826     23  2.000                                                                 
  local pseudopotential read in
  partial core-charges read in
  partial kinetic energy density read in
  atomic valenz-charges read in
  non local Contribution for L=           1  read in
    real space projection operators read in
  non local Contribution for L=           1  read in
    real space projection operators read in
  non local Contribution for L=           0  read in
    real space projection operators read in
  non local Contribution for L=           0  read in
    real space projection operators read in
  non local Contribution for L=           2  read in
    real space projection operators read in
    PAW grid and wavefunctions read in
 
   number of l-projection  operators is LMAX  =           5
   number of lm-projection operators is LMMAX =          13
 
 POTCAR:    PAW_PBE O 08Apr2002                   
   SHA256 =  818f92134a0a090dccd8ba1447fa70422a3b330e708bb4f08108d8ae51209ddf O/POTCAR              
   COPYR  = (c) Copyright 08Apr2002 Georg Kresse                                                    
   COPYR  = This file is part of the software VASP. Any use, copying, and all other rights are regul
   COPYR  = If you do not have a valid VASP license, you may not use, copy or distribute this file. 
   VRHFIN =O: s2p4                                                                                  
   LEXCH  = PE                                                                                      
   EATOM  =   432.3788 eV,   31.7789 Ry                                                             
                                                                                                    
   TITEL  = PAW_PBE O 08Apr2002                                                                     
   LULTRA =        F    use ultrasoft PP ?                                                          
   IUNSCR =        1    unscreen: 0-lin 1-nonlin 2-no                                               
   RPACOR =    1.200    partial core radius                                                         
   POMASS =   16.000; ZVAL   =    6.000    mass and valenz                                          
   RCORE  =    1.520    outmost cutoff radius                                                       
   RWIGS  =    1.550; RWIGS  =    0.820    wigner-seitz radius (au A)                               
   ENMAX  =  400.000; ENMIN  =  300.000 eV                                                          
   ICORE  =        2    local potential                                                             
   LCOR   =        T    correct aug charges                                                         
   LPAW   =        T    paw PP                                                                      
   EAUG   =  605.392                                                                                
   DEXC   =    0.000                                                                                
   RMAX   =    1.553    core radius for proj-oper                                                   
   RAUG   =    1.300    factor for augmentation sphere                                              
   RDEP   =    1.550    radius for radial grids                                                     
   RDEPT  =    1.329    core radius for aug-charge                                                  
                                                                                                    
   Atomic configuration                                                                             
    4 entries                                                                                       
     n  l   j            E        occ.                                                              
     1  0  0.50      -514.6923   2.0000                                                             
     2  0  0.50       -23.9615   2.0000                                                             
     2  1  0.50        -9.0305   4.0000                                                             
     3  2  1.50        -9.5241   0.0000                                                             
   Description                                                                                      
     l       E           TYP  RCUT    TYP  RCUT                                                     
     0    -23.9615318     23  1.200                                                                 
     0     -9.5240782     23  1.200                                                                 
     1     -9.0304911     23  1.520                                                                 
     1      8.1634956     23  1.520                                                                 
     2     -9.5240782      7  1.500                                                                 
  local pseudopotential read in
  partial core-charges read in
  partial kinetic energy density read in
  kinetic energy density of atom read in
  atomic valenz-charges read in
  non local Contribution for L=           0  read in
    real space projection operators read in
  non local Contribution for L=           0  read in
    real space projection operators read in
  non local Contribution for L=           1  read in
    real space projection operators read in
  non local Contribution for L=           1  read in
    real space projection operators read in
    PAW grid and wavefunctions read in
 
   number of l-projection  operators is LMAX  =           4
   number of lm-projection operators is LMMAX =           8
 
 Optimization of the real space projectors (new method)

 maximal supplied QI-value         = 15.12
 optimisation between [QCUT,QGAM] = [ 11.64, 23.28] = [ 37.95,151.78] Ry 
 Optimized for a Real-space Cutoff    1.49 Angstroem

   l    n(q)    QCUT    max X(q) W(low)/X(q) W(high)/X(q)  e(spline) 
   2      9    11.641    60.898    0.24E-03    0.10E-03    0.19E-06
   2      9    11.641    58.894    0.25E-03    0.10E-03    0.19E-06
   0     10    11.641   109.617    0.73E-04    0.33E-04    0.11E-06
   0     10    11.641    75.026    0.71E-04    0.32E-04    0.11E-06
   1     10    11.641    16.344    0.27E-04    0.97E-04    0.16E-06
   1     10    11.641    10.160    0.23E-04    0.77E-04    0.13E-06
 Optimization of the real space projectors (new method)

 maximal supplied QI-value         = 18.90
 optimisation between [QCUT,QGAM] = [ 11.53, 23.24] = [ 37.21,151.29] Ry 
 Optimized for a Real-space Cutoff    1.28 Angstroem

   l    n(q)    QCUT    max X(q) W(low)/X(q) W(high)/X(q)  e(spline) 
   1      8    11.527     2.974    0.44E-04    0.56E-04    0.12E-06
   1      8    11.527     4.279    0.12E-03    0.12E-03    0.26E-06
   0      9    11.527    16.381    0.46E-04    0.64E-04    0.78E-07
   0      9    11.527     5.611    0.26E-04    0.43E-04    0.55E-07
   2      8    11.527     4.652    0.22E-03    0.72E-04    0.47E-07
 Optimization of the real space projectors (new method)

 maximal supplied QI-value         = 24.76
 optimisation between [QCUT,QGAM] = [ 11.64, 23.27] = [ 37.91,151.63] Ry 
 Optimized for a Real-space Cutoff    1.14 Angstroem

   l    n(q)    QCUT    max X(q) W(low)/X(q) W(high)/X(q)  e(spline) 
   0      8    11.635    20.381    0.10E-03    0.33E-03    0.24E-06
   0      8    11.635    15.268    0.11E-03    0.35E-03    0.26E-06
   1      7    11.635     5.964    0.24E-03    0.31E-03    0.30E-06
   1      7    11.635     5.382    0.22E-03    0.25E-03    0.26E-06
  PAW_PBE Au 04Oct2007                  :
 energy of atom  1       EATOM= -926.0867
 kinetic energy error for atom=    0.0034 (will be added to EATOM!!)
  PAW_PBE Mg_pv 13Apr2007               :
 energy of atom  2       EATOM=-1056.7344
 kinetic energy error for atom=    0.0340 (will be added to EATOM!!)
  PAW_PBE O 08Apr2002                   :
 energy of atom  3       EATOM= -432.3788
 kinetic energy error for atom=    0.0208 (will be added to EATOM!!)
 
 
 POSCAR: Au Mg  O
  positions in direct lattice
  No initial velocities read in

 METAGGA = M06L                                        LMAXTAU =  6    LMIXTAU =  F

 exchange correlation table for  LEXCH =        8
   RHO(1)=    0.500       N(1)  =     2000
   RHO(2)=  100.500       N(2)  =     4000
 


--------------------------------------------------------------------------------------------------------


 ion  position               nearest neighbor table
   1  0.560  0.500  0.629-   2 2.54  73 2.92
   2  0.440  0.500  0.629-   1 2.54  53 2.92
   3  0.000  0.000  0.407- 105 2.11 106 2.11 121 2.11 186 2.11 103 2.11
   4  0.100  0.100  0.407- 105 2.11 106 2.11 110 2.11 125 2.11 104 2.11
   5  0.000  0.100  0.503- 103 2.11 104 2.11 107 2.11 184 2.11 105 2.11
   6  0.100  0.000  0.503- 103 2.11 104 2.11 120 2.11 123 2.11 106 2.11
   7  0.000  0.200  0.407- 109 2.11 105 2.11 110 2.11 190 2.11 107 2.11
   8  0.100  0.300  0.407- 110 2.11 109 2.11 114 2.11 129 2.11 108 2.11
   9  0.000  0.300  0.503- 107 2.11 108 2.11 111 2.11 188 2.11 109 2.11
  10  0.100  0.200  0.503- 108 2.11 107 2.11 104 2.11 127 2.11 110 2.11
  11  0.000  0.400  0.407- 109 2.11 113 2.11 114 2.11 194 2.11 111 2.11
  12  0.100  0.500  0.407- 113 2.11 114 2.11 118 2.11 133 2.11 112 2.11
  13  0.000  0.500  0.503- 111 2.11 112 2.11 115 2.11 192 2.11 113 2.11
  14  0.100  0.400  0.503- 108 2.11 111 2.11 112 2.11 131 2.11 114 2.11
  15  0.000  0.600  0.407- 113 2.11 117 2.11 118 2.11 198 2.11 115 2.11
  16  0.100  0.700  0.407- 122 2.11 118 2.11 117 2.11 137 2.11 116 2.11
  17  0.000  0.700  0.503- 119 2.11 116 2.11 115 2.11 196 2.11 117 2.11
  18  0.100  0.600  0.503- 112 2.11 115 2.11 116 2.11 135 2.11 118 2.11
  19  0.000  0.800  0.407- 117 2.11 121 2.11 122 2.11 202 2.11 119 2.11
  20  0.100  0.900  0.407- 106 2.11 121 2.11 122 2.11 141 2.11 120 2.11
  21  0.000  0.900  0.503- 103 2.11 119 2.11 120 2.11 200 2.11 121 2.11
  22  0.100  0.800  0.503- 116 2.11 119 2.11 120 2.11 139 2.11 122 2.11
  23  0.200  0.000  0.407- 126 2.11 125 2.11 106 2.11 141 2.11 123 2.11
  24  0.300  0.100  0.407- 125 2.11 126 2.11 130 2.11 145 2.11 124 2.11
  25  0.200  0.100  0.503- 124 2.11 123 2.11 104 2.11 127 2.11 125 2.11
  26  0.300  0.000  0.503- 123 2.11 124 2.11 140 2.11 143 2.11 126 2.11
  27  0.200  0.200  0.407- 129 2.11 130 2.11 110 2.11 125 2.11 127 2.11
  28  0.300  0.300  0.407- 129 2.11 130 2.11 134 2.11 149 2.11 128 2.11
  29  0.200  0.300  0.503- 127 2.11 128 2.11 108 2.11 131 2.11 129 2.11
  30  0.300  0.200  0.503- 127 2.11 128 2.11 124 2.11 147 2.11 130 2.11
  31  0.200  0.400  0.407- 134 2.11 129 2.11 133 2.11 114 2.11 131 2.11
  32  0.300  0.500  0.407- 133 2.11 134 2.11 138 2.11 153 2.11 132 2.11
  33  0.200  0.500  0.503- 132 2.11 131 2.11 112 2.11 135 2.11 133 2.11
  34  0.300  0.400  0.503- 131 2.11 128 2.11 132 2.11 151 2.11 134 2.11
  35  0.200  0.600  0.407- 138 2.11 133 2.11 137 2.11 118 2.11 135 2.11
  36  0.300  0.700  0.407- 137 2.11 142 2.11 138 2.11 157 2.11 136 2.11
  37  0.200  0.700  0.503- 136 2.11 139 2.11 116 2.11 135 2.11 137 2.11
  38  0.300  0.600  0.503- 135 2.11 132 2.11 136 2.11 155 2.11 138 2.11
  39  0.200  0.800  0.407- 137 2.11 142 2.11 141 2.11 122 2.11 139 2.11
  40  0.300  0.900  0.407- 141 2.11 126 2.11 142 2.11 161 2.11 140 2.11
  41  0.200  0.900  0.503- 140 2.11 123 2.11 139 2.11 120 2.11 141 2.11
  42  0.300  0.800  0.503- 136 2.11 139 2.11 140 2.11 159 2.11 142 2.11
  43  0.400  0.000  0.407- 126 2.11 145 2.11 146 2.11 161 2.11 143 2.11
  44  0.500  0.100  0.407- 145 2.11 146 2.11 150 2.11 165 2.11 144 2.11
  45  0.400  0.100  0.503- 124 2.11 143 2.11 144 2.11 147 2.11 145 2.11
  46  0.500  0.000  0.503- 143 2.11 144 2.11 160 2.11 163 2.11 146 2.11
  47  0.400  0.200  0.407- 149 2.11 145 2.11 130 2.11 150 2.11 147 2.11
  48  0.500  0.300  0.407- 150 2.11 149 2.11 154 2.11 169 2.11 148 2.11
  49  0.400  0.300  0.503- 147 2.11 128 2.11 148 2.11 151 2.11 149 2.11
  50  0.500  0.200  0.503- 148 2.11 147 2.11 144 2.11 167 2.11 150 2.11
  51  0.400  0.400  0.407- 134 2.11 149 2.11 153 2.11 154 2.11 151 2.11
  52  0.500  0.500  0.407- 153 2.11 154 2.11 158 2.11 173 2.11 152 2.11
  53  0.400  0.500  0.503- 132 2.11 151 2.11 152 2.11 155 2.11 153 2.11   2 2.92
  54  0.500  0.400  0.503- 148 2.11 151 2.11 152 2.11 171 2.11 154 2.11
  55  0.400  0.600  0.407- 138 2.11 153 2.11 157 2.11 158 2.11 155 2.11
  56  0.500  0.700  0.407- 162 2.11 158 2.11 157 2.11 177 2.11 156 2.11
  57  0.400  0.700  0.503- 159 2.11 155 2.11 156 2.11 136 2.11 157 2.11
  58  0.500  0.600  0.503- 152 2.11 155 2.11 156 2.11 175 2.11 158 2.11
  59  0.400  0.800  0.407- 157 2.11 142 2.11 161 2.11 162 2.11 159 2.11
  60  0.500  0.900  0.407- 146 2.11 161 2.11 162 2.11 181 2.11 160 2.11
  61  0.400  0.900  0.503- 140 2.11 143 2.11 159 2.11 160 2.11 161 2.11
  62  0.500  0.800  0.503- 156 2.11 159 2.11 160 2.11 179 2.11 162 2.11
  63  0.600  0.000  0.407- 146 2.11 165 2.11 166 2.11 181 2.11 163 2.11
  64  0.700  0.100  0.407- 185 2.11 166 2.11 170 2.11 165 2.11 164 2.11
  65  0.600  0.100  0.503- 144 2.11 163 2.11 164 2.11 167 2.11 165 2.11
  66  0.700  0.000  0.503- 183 2.11 164 2.11 180 2.11 163 2.11 166 2.11
  67  0.600  0.200  0.407- 169 2.11 165 2.11 150 2.11 170 2.11 167 2.11
  68  0.700  0.300  0.407- 170 2.11 189 2.11 174 2.11 169 2.11 168 2.11
  69  0.600  0.300  0.503- 167 2.11 148 2.11 168 2.11 171 2.11 169 2.11
  70  0.700  0.200  0.503- 168 2.11 187 2.11 164 2.11 167 2.11 170 2.11
  71  0.600  0.400  0.407- 154 2.11 169 2.11 173 2.11 174 2.11 171 2.11
  72  0.700  0.500  0.407- 193 2.11 174 2.11 178 2.11 173 2.11 172 2.11
  73  0.600  0.500  0.503- 152 2.11 171 2.11 172 2.11 175 2.11 173 2.11   1 2.92
  74  0.700  0.400  0.503- 191 2.11 171 2.11 172 2.11 168 2.11 174 2.11
  75  0.600  0.600  0.407- 158 2.11 173 2.11 177 2.11 178 2.11 175 2.11
  76  0.700  0.700  0.407- 182 2.11 197 2.11 177 2.11 178 2.11 176 2.11
  77  0.600  0.700  0.503- 179 2.11 175 2.11 176 2.11 156 2.11 177 2.11
  78  0.700  0.600  0.503- 195 2.11 175 2.11 176 2.11 172 2.11 178 2.11
  79  0.600  0.800  0.407- 177 2.11 162 2.11 181 2.11 182 2.11 179 2.11
  80  0.700  0.900  0.407- 201 2.11 181 2.11 182 2.11 166 2.11 180 2.11
  81  0.600  0.900  0.503- 160 2.11 163 2.11 179 2.11 180 2.11 181 2.11
  82  0.700  0.800  0.503- 176 2.11 199 2.11 180 2.11 179 2.11 182 2.11
  83  0.800  0.000  0.407- 166 2.11 185 2.11 186 2.11 201 2.11 183 2.11
  84  0.900  0.100  0.407- 105 2.11 185 2.11 186 2.11 190 2.11 184 2.11
  85  0.800  0.100  0.503- 164 2.11 183 2.11 184 2.11 187 2.11 185 2.11
  86  0.900  0.000  0.503- 103 2.11 183 2.11 184 2.11 200 2.11 186 2.11
  87  0.800  0.200  0.407- 170 2.11 189 2.11 185 2.11 190 2.11 187 2.11
  88  0.900  0.300  0.407- 190 2.11 189 2.11 109 2.11 194 2.11 188 2.11
  89  0.800  0.300  0.503- 168 2.11 187 2.11 188 2.11 191 2.11 189 2.11
  90  0.900  0.200  0.503- 188 2.11 184 2.11 187 2.11 107 2.11 190 2.11
  91  0.800  0.400  0.407- 174 2.11 189 2.11 193 2.11 194 2.11 191 2.11
  92  0.900  0.500  0.407- 113 2.11 193 2.11 194 2.11 198 2.11 192 2.11
  93  0.800  0.500  0.503- 172 2.11 191 2.11 192 2.11 195 2.11 193 2.11
  94  0.900  0.400  0.503- 111 2.11 188 2.11 191 2.11 192 2.11 194 2.11
  95  0.800  0.600  0.407- 178 2.11 193 2.11 197 2.11 198 2.11 195 2.11
  96  0.900  0.700  0.407- 202 2.11 197 2.11 198 2.11 117 2.11 196 2.11
  97  0.800  0.700  0.503- 176 2.11 199 2.11 196 2.11 195 2.11 197 2.11
  98  0.900  0.600  0.503- 115 2.11 192 2.11 195 2.11 196 2.11 198 2.11
  99  0.800  0.800  0.407- 182 2.11 197 2.11 201 2.11 202 2.11 199 2.11
 100  0.900  0.900  0.407- 121 2.11 186 2.11 201 2.11 202 2.11 200 2.11
 101  0.800  0.900  0.503- 180 2.11 183 2.11 199 2.11 200 2.11 201 2.11
 102  0.900  0.800  0.503- 196 2.11 119 2.11 199 2.11 200 2.11 202 2.11
 103  0.000  0.000  0.503-   5 2.11   6 2.11  21 2.11  86 2.11   3 2.11
 104  0.100  0.100  0.503-   5 2.11   6 2.11  10 2.11  25 2.11   4 2.11
 105  0.000  0.100  0.407-   3 2.11   4 2.11   7 2.11  84 2.11   5 2.11
 106  0.100  0.000  0.407-   3 2.11   4 2.11  20 2.11  23 2.11   6 2.11
 107  0.000  0.200  0.503-   9 2.11   5 2.11  10 2.11  90 2.11   7 2.11
 108  0.100  0.300  0.503-  10 2.11   9 2.11  14 2.11  29 2.11   8 2.11
 109  0.000  0.300  0.407-   7 2.11   8 2.11  11 2.11  88 2.11   9 2.11
 110  0.100  0.200  0.407-   8 2.11   7 2.11   4 2.11  27 2.11  10 2.11
 111  0.000  0.400  0.503-   9 2.11  13 2.11  14 2.11  94 2.11  11 2.11
 112  0.100  0.500  0.503-  13 2.11  14 2.11  18 2.11  33 2.11  12 2.11
 113  0.000  0.500  0.407-  11 2.11  12 2.11  15 2.11  92 2.11  13 2.11
 114  0.100  0.400  0.407-   8 2.11  11 2.11  12 2.11  31 2.11  14 2.11
 115  0.000  0.600  0.503-  13 2.11  17 2.11  18 2.11  98 2.11  15 2.11
 116  0.100  0.700  0.503-  22 2.11  18 2.11  17 2.11  37 2.11  16 2.11
 117  0.000  0.700  0.407-  19 2.11  16 2.11  15 2.11  96 2.11  17 2.11
 118  0.100  0.600  0.407-  12 2.11  15 2.11  16 2.11  35 2.11  18 2.11
 119  0.000  0.800  0.503-  17 2.11  21 2.11  22 2.11 102 2.11  19 2.11
 120  0.100  0.900  0.503-   6 2.11  21 2.11  22 2.11  41 2.11  20 2.11
 121  0.000  0.900  0.407-   3 2.11  19 2.11  20 2.11 100 2.11  21 2.11
 122  0.100  0.800  0.407-  16 2.11  19 2.11  20 2.11  39 2.11  22 2.11
 123  0.200  0.000  0.503-  26 2.11  25 2.11   6 2.11  41 2.11  23 2.11
 124  0.300  0.100  0.503-  25 2.11  26 2.11  30 2.11  45 2.11  24 2.11
 125  0.200  0.100  0.407-  24 2.11  23 2.11   4 2.11  27 2.11  25 2.11
 126  0.300  0.000  0.407-  23 2.11  24 2.11  40 2.11  43 2.11  26 2.11
 127  0.200  0.200  0.503-  29 2.11  30 2.11  10 2.11  25 2.11  27 2.11
 128  0.300  0.300  0.503-  29 2.11  30 2.11  34 2.11  49 2.11  28 2.11
 129  0.200  0.300  0.407-  27 2.11  28 2.11   8 2.11  31 2.11  29 2.11
 130  0.300  0.200  0.407-  27 2.11  28 2.11  24 2.11  47 2.11  30 2.11
 131  0.200  0.400  0.503-  34 2.11  29 2.11  33 2.11  14 2.11  31 2.11
 132  0.300  0.500  0.503-  33 2.11  34 2.11  38 2.11  53 2.11  32 2.11
 133  0.200  0.500  0.407-  32 2.11  31 2.11  12 2.11  35 2.11  33 2.11
 134  0.300  0.400  0.407-  31 2.11  28 2.11  32 2.11  51 2.11  34 2.11
 135  0.200  0.600  0.503-  38 2.11  33 2.11  37 2.11  18 2.11  35 2.11
 136  0.300  0.700  0.503-  37 2.11  42 2.11  38 2.11  57 2.11  36 2.11
 137  0.200  0.700  0.407-  36 2.11  39 2.11  16 2.11  35 2.11  37 2.11
 138  0.300  0.600  0.407-  35 2.11  32 2.11  36 2.11  55 2.11  38 2.11
 139  0.200  0.800  0.503-  37 2.11  42 2.11  41 2.11  22 2.11  39 2.11
 140  0.300  0.900  0.503-  41 2.11  26 2.11  42 2.11  61 2.11  40 2.11
 141  0.200  0.900  0.407-  40 2.11  23 2.11  39 2.11  20 2.11  41 2.11
 142  0.300  0.800  0.407-  36 2.11  39 2.11  40 2.11  59 2.11  42 2.11
 143  0.400  0.000  0.503-  26 2.11  45 2.11  46 2.11  61 2.11  43 2.11
 144  0.500  0.100  0.503-  45 2.11  46 2.11  50 2.11  65 2.11  44 2.11
 145  0.400  0.100  0.407-  24 2.11  43 2.11  44 2.11  47 2.11  45 2.11
 146  0.500  0.000  0.407-  43 2.11  44 2.11  60 2.11  63 2.11  46 2.11
 147  0.400  0.200  0.503-  49 2.11  45 2.11  30 2.11  50 2.11  47 2.11
 148  0.500  0.300  0.503-  50 2.11  49 2.11  54 2.11  69 2.11  48 2.11
 149  0.400  0.300  0.407-  47 2.11  28 2.11  48 2.11  51 2.11  49 2.11
 150  0.500  0.200  0.407-  48 2.11  47 2.11  44 2.11  67 2.11  50 2.11
 151  0.400  0.400  0.503-  34 2.11  49 2.11  53 2.11  54 2.11  51 2.11
 152  0.500  0.500  0.503-  53 2.11  54 2.11  58 2.11  73 2.11  52 2.11
 153  0.400  0.500  0.407-  32 2.11  51 2.11  52 2.11  55 2.11  53 2.11
 154  0.500  0.400  0.407-  48 2.11  51 2.11  52 2.11  71 2.11  54 2.11
 155  0.400  0.600  0.503-  38 2.11  53 2.11  57 2.11  58 2.11  55 2.11
 156  0.500  0.700  0.503-  62 2.11  58 2.11  57 2.11  77 2.11  56 2.11
 157  0.400  0.700  0.407-  59 2.11  55 2.11  56 2.11  36 2.11  57 2.11
 158  0.500  0.600  0.407-  52 2.11  55 2.11  56 2.11  75 2.11  58 2.11
 159  0.400  0.800  0.503-  57 2.11  42 2.11  61 2.11  62 2.11  59 2.11
 160  0.500  0.900  0.503-  46 2.11  61 2.11  62 2.11  81 2.11  60 2.11
 161  0.400  0.900  0.407-  40 2.11  43 2.11  59 2.11  60 2.11  61 2.11
 162  0.500  0.800  0.407-  56 2.11  59 2.11  60 2.11  79 2.11  62 2.11
 163  0.600  0.000  0.503-  46 2.11  65 2.11  66 2.11  81 2.11  63 2.11
 164  0.700  0.100  0.503-  85 2.11  66 2.11  70 2.11  65 2.11  64 2.11
 165  0.600  0.100  0.407-  44 2.11  63 2.11  64 2.11  67 2.11  65 2.11
 166  0.700  0.000  0.407-  83 2.11  64 2.11  80 2.11  63 2.11  66 2.11
 167  0.600  0.200  0.503-  69 2.11  65 2.11  50 2.11  70 2.11  67 2.11
 168  0.700  0.300  0.503-  70 2.11  89 2.11  74 2.11  69 2.11  68 2.11
 169  0.600  0.300  0.407-  67 2.11  48 2.11  68 2.11  71 2.11  69 2.11
 170  0.700  0.200  0.407-  68 2.11  87 2.11  64 2.11  67 2.11  70 2.11
 171  0.600  0.400  0.503-  54 2.11  69 2.11  73 2.11  74 2.11  71 2.11
 172  0.700  0.500  0.503-  93 2.11  74 2.11  78 2.11  73 2.11  72 2.11
 173  0.600  0.500  0.407-  52 2.11  71 2.11  72 2.11  75 2.11  73 2.11
 174  0.700  0.400  0.407-  91 2.11  71 2.11  72 2.11  68 2.11  74 2.11
 175  0.600  0.600  0.503-  58 2.11  73 2.11  77 2.11  78 2.11  75 2.11
 176  0.700  0.700  0.503-  82 2.11  97 2.11  77 2.11  78 2.11  76 2.11
 177  0.600  0.700  0.407-  79 2.11  75 2.11  76 2.11  56 2.11  77 2.11
 178  0.700  0.600  0.407-  95 2.11  75 2.11  76 2.11  72 2.11  78 2.11
 179  0.600  0.800  0.503-  77 2.11  62 2.11  81 2.11  82 2.11  79 2.11
 180  0.700  0.900  0.503- 101 2.11  81 2.11  82 2.11  66 2.11  80 2.11
 181  0.600  0.900  0.407-  60 2.11  63 2.11  79 2.11  80 2.11  81 2.11
 182  0.700  0.800  0.407-  76 2.11  99 2.11  80 2.11  79 2.11  82 2.11
 183  0.800  0.000  0.503-  66 2.11  85 2.11  86 2.11 101 2.11  83 2.11
 184  0.900  0.100  0.503-   5 2.11  85 2.11  86 2.11  90 2.11  84 2.11
 185  0.800  0.100  0.407-  64 2.11  83 2.11  84 2.11  87 2.11  85 2.11
 186  0.900  0.000  0.407-   3 2.11  83 2.11  84 2.11 100 2.11  86 2.11
 187  0.800  0.200  0.503-  70 2.11  89 2.11  85 2.11  90 2.11  87 2.11
 188  0.900  0.300  0.503-  90 2.11  89 2.11   9 2.11  94 2.11  88 2.11
 189  0.800  0.300  0.407-  68 2.11  87 2.11  88 2.11  91 2.11  89 2.11
 190  0.900  0.200  0.407-  88 2.11  84 2.11  87 2.11   7 2.11  90 2.11
 191  0.800  0.400  0.503-  74 2.11  89 2.11  93 2.11  94 2.11  91 2.11
 192  0.900  0.500  0.503-  13 2.11  93 2.11  94 2.11  98 2.11  92 2.11
 193  0.800  0.500  0.407-  72 2.11  91 2.11  92 2.11  95 2.11  93 2.11
 194  0.900  0.400  0.407-  11 2.11  88 2.11  91 2.11  92 2.11  94 2.11
 195  0.800  0.600  0.503-  78 2.11  93 2.11  97 2.11  98 2.11  95 2.11
 196  0.900  0.700  0.503- 102 2.11  97 2.11  98 2.11  17 2.11  96 2.11
 197  0.800  0.700  0.407-  76 2.11  99 2.11  96 2.11  95 2.11  97 2.11
 198  0.900  0.600  0.407-  15 2.11  92 2.11  95 2.11  96 2.11  98 2.11
 199  0.800  0.800  0.503-  82 2.11  97 2.11 101 2.11 102 2.11  99 2.11
 200  0.900  0.900  0.503-  21 2.11  86 2.11 101 2.11 102 2.11 100 2.11
 201  0.800  0.900  0.407-  80 2.11  83 2.11  99 2.11 100 2.11 101 2.11
 202  0.900  0.800  0.407-  96 2.11  19 2.11  99 2.11 100 2.11 102 2.11
 

IMPORTANT INFORMATION: All symmetrisations will be switched off!
NOSYMM: (Re-)initialisation of all symmetry stuff for point group C_1.


----------------------------------------------------------------------------------------

                                     Primitive cell                                     

  volume of cell :    9881.6133

  direct lattice vectors                    reciprocal lattice vectors
    21.138852197  0.000000000  0.000000000     0.047306258  0.000000000  0.000000000
     0.000000000 21.138852197  0.000000000     0.000000000  0.047306258  0.000000000
     0.000000000  0.000000000 22.113885220     0.000000000  0.000000000  0.045220457

  length of vectors
    21.138852197 21.138852197 22.113885220     0.047306258  0.047306258  0.045220457

  position of ions in fractional coordinates (direct lattice)
     0.560001958  0.500000000  0.629184642
     0.439998042  0.500000000  0.629184642
     0.000000000  0.000000000  0.406984115
     0.100000000  0.100000000  0.406984115
     0.000000000  0.100000000  0.502574971
     0.100000000  0.000000000  0.502574971
     0.000000000  0.200000000  0.406984115
     0.100000000  0.300000000  0.406984115
     0.000000000  0.300000000  0.502574971
     0.100000000  0.200000000  0.502574971
     0.000000000  0.400000000  0.406984115
     0.100000000  0.500000000  0.406984115
     0.000000000  0.500000000  0.502574971
     0.100000000  0.400000000  0.502574971
     0.000000000  0.600000000  0.406984115
     0.100000000  0.700000000  0.406984115
     0.000000000  0.700000000  0.502574971
     0.100000000  0.600000000  0.502574971
     0.000000000  0.800000000  0.406984115
     0.100000000  0.900000000  0.406984115
     0.000000000  0.900000000  0.502574971
     0.100000000  0.800000000  0.502574971
     0.200000000  0.000000000  0.406984115
     0.300000000  0.100000000  0.406984115
     0.200000000  0.100000000  0.502574971
     0.300000000  0.000000000  0.502574971
     0.200000000  0.200000000  0.406984115
     0.300000000  0.300000000  0.406984115
     0.200000000  0.300000000  0.502574971
     0.300000000  0.200000000  0.502574971
     0.200000000  0.400000000  0.406984115
     0.300000000  0.500000000  0.406984115
     0.200000000  0.500000000  0.502574971
     0.300000000  0.400000000  0.502574971
     0.200000000  0.600000000  0.406984115
     0.300000000  0.700000000  0.406984115
     0.200000000  0.700000000  0.502574971
     0.300000000  0.600000000  0.502574971
     0.200000000  0.800000000  0.406984115
     0.300000000  0.900000000  0.406984115
     0.200000000  0.900000000  0.502574971
     0.300000000  0.800000000  0.502574971
     0.400000000  0.000000000  0.406984115
     0.500000000  0.100000000  0.406984115
     0.400000000  0.100000000  0.502574971
     0.500000000  0.000000000  0.502574971
     0.400000000  0.200000000  0.406984115
     0.500000000  0.300000000  0.406984115
     0.400000000  0.300000000  0.502574971
     0.500000000  0.200000000  0.502574971
     0.400000000  0.400000000  0.406984115
     0.500000000  0.500000000  0.406984115
     0.400000000  0.500000000  0.502574971
     0.500000000  0.400000000  0.502574971
     0.400000000  0.600000000  0.406984115
     0.500000000  0.700000000  0.406984115
     0.400000000  0.700000000  0.502574971
     0.500000000  0.600000000  0.502574971
     0.400000000  0.800000000  0.406984115
     0.500000000  0.900000000  0.406984115
     0.400000000  0.900000000  0.502574971
     0.500000000  0.800000000  0.502574971
     0.600000000  0.000000000  0.406984115
     0.700000000  0.100000000  0.406984115
     0.600000000  0.100000000  0.502574971
     0.700000000  0.000000000  0.502574971
     0.600000000  0.200000000  0.406984115
     0.700000000  0.300000000  0.406984115
     0.600000000  0.300000000  0.502574971
     0.700000000  0.200000000  0.502574971
     0.600000000  0.400000000  0.406984115
     0.700000000  0.500000000  0.406984115
     0.600000000  0.500000000  0.502574971
     0.700000000  0.400000000  0.502574971
     0.600000000  0.600000000  0.406984115
     0.700000000  0.700000000  0.406984115
     0.600000000  0.700000000  0.502574971
     0.700000000  0.600000000  0.502574971
     0.600000000  0.800000000  0.406984115
     0.700000000  0.900000000  0.406984115
     0.600000000  0.900000000  0.502574971
     0.700000000  0.800000000  0.502574971
     0.800000000  0.000000000  0.406984115
     0.900000000  0.100000000  0.406984115
     0.800000000  0.100000000  0.502574971
     0.900000000  0.000000000  0.502574971
     0.800000000  0.200000000  0.406984115
     0.900000000  0.300000000  0.406984115
     0.800000000  0.300000000  0.502574971
     0.900000000  0.200000000  0.502574971
     0.800000000  0.400000000  0.406984115
     0.900000000  0.500000000  0.406984115
     0.800000000  0.500000000  0.502574971
     0.900000000  0.400000000  0.502574971
     0.800000000  0.600000000  0.406984115
     0.900000000  0.700000000  0.406984115
     0.800000000  0.700000000  0.502574971
     0.900000000  0.600000000  0.502574971
     0.800000000  0.800000000  0.406984115
     0.900000000  0.900000000  0.406984115
     0.800000000  0.900000000  0.502574971
     0.900000000  0.800000000  0.502574971
     0.000000000  0.000000000  0.502574971
     0.100000000  0.100000000  0.502574971
     0.000000000  0.100000000  0.406984115
     0.100000000  0.000000000  0.406984115
     0.000000000  0.200000000  0.502574971
     0.100000000  0.300000000  0.502574971
     0.000000000  0.300000000  0.406984115
     0.100000000  0.200000000  0.406984115
     0.000000000  0.400000000  0.502574971
     0.100000000  0.500000000  0.502574971
     0.000000000  0.500000000  0.406984115
     0.100000000  0.400000000  0.406984115
     0.000000000  0.600000000  0.502574971
     0.100000000  0.700000000  0.502574971
     0.000000000  0.700000000  0.406984115
     0.100000000  0.600000000  0.406984115
     0.000000000  0.800000000  0.502574971
     0.100000000  0.900000000  0.502574971
     0.000000000  0.900000000  0.406984115
     0.100000000  0.800000000  0.406984115
     0.200000000  0.000000000  0.502574971
     0.300000000  0.100000000  0.502574971
     0.200000000  0.100000000  0.406984115
     0.300000000  0.000000000  0.406984115
     0.200000000  0.200000000  0.502574971
     0.300000000  0.300000000  0.502574971
     0.200000000  0.300000000  0.406984115
     0.300000000  0.200000000  0.406984115
     0.200000000  0.400000000  0.502574971
     0.300000000  0.500000000  0.502574971
     0.200000000  0.500000000  0.406984115
     0.300000000  0.400000000  0.406984115
     0.200000000  0.600000000  0.502574971
     0.300000000  0.700000000  0.502574971
     0.200000000  0.700000000  0.406984115
     0.300000000  0.600000000  0.406984115
     0.200000000  0.800000000  0.502574971
     0.300000000  0.900000000  0.502574971
     0.200000000  0.900000000  0.406984115
     0.300000000  0.800000000  0.406984115
     0.400000000  0.000000000  0.502574971
     0.500000000  0.100000000  0.502574971
     0.400000000  0.100000000  0.406984115
     0.500000000  0.000000000  0.406984115
     0.400000000  0.200000000  0.502574971
     0.500000000  0.300000000  0.502574971
     0.400000000  0.300000000  0.406984115
     0.500000000  0.200000000  0.406984115
     0.400000000  0.400000000  0.502574971
     0.500000000  0.500000000  0.502574971
     0.400000000  0.500000000  0.406984115
     0.500000000  0.400000000  0.406984115
     0.400000000  0.600000000  0.502574971
     0.500000000  0.700000000  0.502574971
     0.400000000  0.700000000  0.406984115
     0.500000000  0.600000000  0.406984115
     0.400000000  0.800000000  0.502574971
     0.500000000  0.900000000  0.502574971
     0.400000000  0.900000000  0.406984115
     0.500000000  0.800000000  0.406984115
     0.600000000  0.000000000  0.502574971
     0.700000000  0.100000000  0.502574971
     0.600000000  0.100000000  0.406984115
     0.700000000  0.000000000  0.406984115
     0.600000000  0.200000000  0.502574971
     0.700000000  0.300000000  0.502574971
     0.600000000  0.300000000  0.406984115
     0.700000000  0.200000000  0.406984115
     0.600000000  0.400000000  0.502574971
     0.700000000  0.500000000  0.502574971
     0.600000000  0.500000000  0.406984115
     0.700000000  0.400000000  0.406984115
     0.600000000  0.600000000  0.502574971
     0.700000000  0.700000000  0.502574971
     0.600000000  0.700000000  0.406984115
     0.700000000  0.600000000  0.406984115
     0.600000000  0.800000000  0.502574971
     0.700000000  0.900000000  0.502574971
     0.600000000  0.900000000  0.406984115
     0.700000000  0.800000000  0.406984115
     0.800000000  0.000000000  0.502574971
     0.900000000  0.100000000  0.502574971
     0.800000000  0.100000000  0.406984115
     0.900000000  0.000000000  0.406984115
     0.800000000  0.200000000  0.502574971
     0.900000000  0.300000000  0.502574971
     0.800000000  0.300000000  0.406984115
     0.900000000  0.200000000  0.406984115
     0.800000000  0.400000000  0.502574971
     0.900000000  0.500000000  0.502574971
     0.800000000  0.500000000  0.406984115
     0.900000000  0.400000000  0.406984115
     0.800000000  0.600000000  0.502574971
     0.900000000  0.700000000  0.502574971
     0.800000000  0.700000000  0.406984115
     0.900000000  0.600000000  0.406984115
     0.800000000  0.800000000  0.502574971
     0.900000000  0.900000000  0.502574971
     0.800000000  0.900000000  0.406984115
     0.900000000  0.800000000  0.406984115

  ion indices of the primitive-cell ions
   primitive index   ion index
                 1           1
                 2           2
                 3           3
                 4           4
                 5           5
                 6           6
                 7           7
                 8           8
                 9           9
                10          10
                11          11
                12          12
                13          13
                14          14
                15          15
                16          16
                17          17
                18          18
                19          19
                20          20
                21          21
                22          22
                23          23
                24          24
                25          25
                26          26
                27          27
                28          28
                29          29
                30          30
                31          31
                32          32
                33          33
                34          34
                35          35
                36          36
                37          37
                38          38
                39          39
                40          40
                41          41
                42          42
                43          43
                44          44
                45          45
                46          46
                47          47
                48          48
                49          49
                50          50
                51          51
                52          52
                53          53
                54          54
                55          55
                56          56
                57          57
                58          58
                59          59
                60          60
                61          61
                62          62
                63          63
                64          64
                65          65
                66          66
                67          67
                68          68
                69          69
                70          70
                71          71
                72          72
                73          73
                74          74
                75          75
                76          76
                77          77
                78          78
                79          79
                80          80
                81          81
                82          82
                83          83
                84          84
                85          85
                86          86
                87          87
                88          88
                89          89
                90          90
                91          91
                92          92
                93          93
                94          94
                95          95
                96          96
                97          97
                98          98
                99          99
               100         100
               101         101
               102         102
               103         103
               104         104
               105         105
               106         106
               107         107
               108         108
               109         109
               110         110
               111         111
               112         112
               113         113
               114         114
               115         115
               116         116
               117         117
               118         118
               119         119
               120         120
               121         121
               122         122
               123         123
               124         124
               125         125
               126         126
               127         127
               128         128
               129         129
               130         130
               131         131
               132         132
               133         133
               134         134
               135         135
               136         136
               137         137
               138         138
               139         139
               140         140
               141         141
               142         142
               143         143
               144         144
               145         145
               146         146
               147         147
               148         148
               149         149
               150         150
               151         151
               152         152
               153         153
               154         154
               155         155
               156         156
               157         157
               158         158
               159         159
               160         160
               161         161
               162         162
               163         163
               164         164
               165         165
               166         166
               167         167
               168         168
               169         169
               170         170
               171         171
               172         172
               173         173
               174         174
               175         175
               176         176
               177         177
               178         178
               179         179
               180         180
               181         181
               182         182
               183         183
               184         184
               185         185
               186         186
               187         187
               188         188
               189         189
               190         190
               191         191
               192         192
               193         193
               194         194
               195         195
               196         196
               197         197
               198         198
               199         199
               200         200
               201         201
               202         202

----------------------------------------------------------------------------------------

 
 
 KPOINTS: KPOINTS created by Atomic Simulation Env

Automatic generation of k-mesh.
 Grid dimensions read from file:
 generate k-points for:    1    1    1

 Generating k-lattice:

  Cartesian coordinates                     Fractional coordinates (reciprocal lattice)
     0.047306258  0.000000000  0.000000000     1.000000000  0.000000000  0.000000000
     0.000000000  0.047306258  0.000000000     0.000000000  1.000000000  0.000000000
     0.000000000  0.000000000  0.045220457     0.000000000  0.000000000  1.000000000

  Length of vectors
     0.047306258  0.047306258  0.045220457

  Shift w.r.t. Gamma in fractional coordinates (k-lattice)
     0.000000000  0.000000000  0.000000000

 
 Subroutine IBZKPT returns following result:
 ===========================================
 
 Found      1 irreducible k-points:
 
 Following reciprocal coordinates:
            Coordinates               Weight
  0.000000  0.000000  0.000000      1.000000
 
 Following cartesian coordinates:
            Coordinates               Weight
  0.000000  0.000000  0.000000      1.000000
 


--------------------------------------------------------------------------------------------------------




 Dimension of arrays:
   k-points           NKPTS =      1   k-points in BZ     NKDIM =      1   number of bands    NBANDS=    864
   number of dos      NEDOS =    301   number of ions     NIONS =    202
   non local maximal  LDIM  =      6   non local SUM 2l+1 LMDIM =     18
   total plane-waves  NPLWV = ******
   max r-space proj   IRMAX =   6070   max aug-charges    IRDMAX=  26812
   dimension x,y,z NGX =   160 NGY =  160 NGZ =  168
   dimension x,y,z NGXF=   320 NGYF=  320 NGZF=  336
   support grid    NGXF=   320 NGYF=  320 NGZF=  336
   ions per type =               2 100 100
   NGX,Y,Z   is equivalent  to a cutoff of  12.58, 12.58, 12.63 a.u.
   NGXF,Y,Z  is equivalent  to a cutoff of  25.17, 25.17, 25.26 a.u.

 SYSTEM =  MgO-rocksalt                            
 POSCAR =  Au Mg  O                                

 Startparameter for this run:
   NWRITE =      2    write-flag & timer
   PREC   = accura    normal or accurate (medium, high low for compatibility)
   ISTART =      0    job   : 0-new  1-cont  2-samecut
   ICHARG =      2    charge: 1-file 2-atom 10-const
   ISPIN  =      1    spin polarized calculation?
   LNONCOLLINEAR =      F non collinear calculations
   LSORBIT =      F    spin-orbit coupling
   INIWAV =      1    electr: 0-lowe 1-rand  2-diag
   LASPH  =      T    aspherical Exc in radial PAW
 Electronic Relaxation 1
   ENCUT  =  520.0 eV  38.22 Ry    6.18 a.u.  39.30 39.30 41.12*2*pi/ulx,y,z
   ENINI  =  520.0     initial cutoff
   ENAUG  =  758.8 eV  augmentation charge cutoff
   NELM   =   2000;   NELMIN=  8; NELMDL= -5     # of ELM steps 
   EDIFF  = 0.1E-03   stopping-criterion for ELM
   LREAL  =      T    real-space projection
   NLSPLINE    = F    spline interpolate recip. space projectors
   LCOMPAT=      F    compatible to vasp.4.4
   GGA_COMPAT  = T    GGA compatible to vasp.4.4-vasp.4.6
   LMAXPAW     = -100 max onsite density
   LMAXMIX     =    2 max onsite mixed and CHGCAR
   VOSKOWN=      0    Vosko Wilk Nusair interpolation
   ROPT   =   -0.00025  -0.00025  -0.00025
 Ionic relaxation
   EDIFFG = 0.1E-02   stopping-criterion for IOM
   NSW    =      0    number of steps for IOM
   NBLOCK =      1;   KBLOCK =      1    inner block; outer block 
   IBRION =     -1    ionic relax: 0-MD 1-quasi-New 2-CG
   NFREE  =      0    steps in history (QN), initial steepest desc. (CG)
   ISIF   =      2    stress and relaxation
   IWAVPR =     10    prediction:  0-non 1-charg 2-wave 3-comb
   ISYM   =      0    0-nonsym 1-usesym 2-fastsym
   LCORR  =      T    Harris-Foulkes like correction to forces

   POTIM  = 0.5000    time-step for ionic-motion
   TEIN   =    0.0    initial temperature
   TEBEG  =    0.0;   TEEND  =   0.0 temperature during run
   SMASS  =  -3.00    Nose mass-parameter (am)
   estimated Nose-frequenzy (Omega)   =  0.10E-29 period in steps = 0.13E+47 mass=  -0.102E-25a.u.
   SCALEE = 1.0000    scale energy and forces
   NPACO  =    256;   APACO  = 10.0  distance and # of slots for P.C.
   PSTRESS=    0.0 pullay stress

  Mass of Ions in am
   POMASS = 196.97 24.30 16.00
  Ionic Valenz
   ZVAL   =  11.00  8.00  6.00
  Atomic Wigner-Seitz radii
   RWIGS  =  -1.00 -1.00 -1.00
  virtual crystal weights 
   VCA    =   1.00  1.00  1.00
   NELECT =    1422.0000    total number of electrons
   NUPDOWN=      -1.0000    fix difference up-down

 DOS related values:
   EMIN   =  10.00;   EMAX   =-10.00  energy-range for DOS
   EFERMI =   0.00;   METHOD = LEGACY      
   ISMEAR =     0;   SIGMA  =   0.05  broadening in eV -4-tet -1-fermi 0-gaus

 Electronic relaxation 2 (details)
   IALGO  =     58    algorithm
   LDIAG  =      T    sub-space diagonalisation (order eigenvalues)
   LSUBROT=      F    optimize rotation matrix (better conditioning)
   TURBO    =      0    0=normal 1=particle mesh
   IRESTART =      0    0=no restart 2=restart with 2 vectors
   NREBOOT  =      0    no. of reboots
   NMIN     =      0    reboot dimension
   EREF     =   0.00    reference energy to select bands
   IMIX   =      4    mixing-type and parameters
     AMIX     =   0.40;   BMIX     =  1.00
     AMIX_MAG =   1.60;   BMIX_MAG =  1.00
     AMIN     =   0.10
     WC   =   100.;   INIMIX=   1;  MIXPRE=   1;  MAXMIX= -45

 Intra band minimization:
   WEIMIN = 0.0000     energy-eigenvalue tresh-hold
   EBREAK =  0.29E-07  absolut break condition
   DEPER  =   0.30     relativ break condition  

   TIME   =   0.40     timestep for ELM

  volume/ion in A,a.u.               =      48.92       330.12
  Fermi-wavevector in a.u.,A,eV,Ry     =   0.857891  1.621179 10.013573  0.735977
  Thomas-Fermi vector in A             =   1.975013
 
 Write flags
   LWAVE        =      F    write WAVECAR
   LDOWNSAMPLE  =      F    k-point downsampling of WAVECAR
   LCHARG       =      F    write CHGCAR
   LVTOT        =      F    write LOCPOT, total local potential
   LVHAR        =      F    write LOCPOT, Hartree potential only
   LELF         =      F    write electronic localiz. function (ELF)
   LORBIT       =      0    0 simple, 1 ext, 2 COOP (PROOUT), +10 PAW based schemes


 Dipole corrections
   LMONO  =      F    monopole corrections only (constant potential shift)
   LDIPOL =      T    correct potential (dipole corrections)
   IDIPOL =      3    1-x, 2-y, 3-z, 4-all directions 
   EPSILON=  1.0000000 bulk dielectric constant

 Exchange correlation treatment:
   GGA     =    --    GGA type
   LEXCH   =     8    internal setting for exchange type
   LIBXC   =     F    Libxc                    
   VOSKOWN =     0    Vosko Wilk Nusair interpolation
   LHFCALC =     F    Hartree Fock is set to
   LHFONE  =     F    Hartree Fock one center treatment
   AEXX    =    0.0000 exact exchange contribution

 Linear response parameters
   LEPSILON=     F    determine dielectric tensor
   LRPA    =     F    only Hartree local field effects (RPA)
   LNABLA  =     F    use nabla operator in PAW spheres
   LVEL    =     F    velocity operator in full k-point grid
   CSHIFT  =0.1000    complex shift for real part using Kramers Kronig
   OMEGAMAX=  -1.0    maximum frequency
   DEG_THRESHOLD= 0.2000000E-02 threshold for treating states as degnerate
   RTIME   =   -0.100 relaxation time in fs
  (WPLASMAI=    0.000 imaginary part of plasma frequency in eV, 0.658/RTIME)
   DFIELD  = 0.0000000 0.0000000 0.0000000 field for delta impulse in time
 
  Optional k-point grid parameters
   LKPOINTS_OPT  =     F    use optional k-point grid
   KPOINTS_OPT_MODE=     1    mode for optional k-point grid
 
 Orbital magnetization related:
   ORBITALMAG=     F  switch on orbital magnetization
   LCHIMAG   =     F  perturbation theory with respect to B field
   DQ        =  0.001000  dq finite difference perturbation B field
   LLRAUG    =     F  two centre corrections for induced B field
   LBONE     =     F  B-component reconstruction in AE one-centre
   LVGVCALC  =     T  calculate vGv susceptibility
   LVGVAPPL  =     F  apply vGv susceptibility instead of pGv for G=0

 Random number generation:
   RANDOM_GENERATOR = DEFAULT
   PCG_SEED         = not used


--------------------------------------------------------------------------------------------------------


 Static calculation
 charge density and potential will be updated during run
 non-spin polarized calculation
 Conjugate gradient for all bands (Freysoldt, et al. PRB 79, 241103 (2009))
 preconditioned conjugated gradient                                        
 perform sub-space diagonalisation
    before iterative eigenvector-optimisation
 modified Broyden-mixing scheme, WC =      100.0
 initial mixing is a Kerker type mixing with AMIX =  0.4000 and BMIX =      1.0000
 Hartree-type preconditioning will be used
 using additional bands          153
 real space projection scheme for non local part
 use partial core corrections
 no Harris-corrections to forces 
 use gradient corrections 
 use of overlap-Matrix (Vanderbilt PP)
 Gauss-broadening in eV      SIGMA  =   0.05


--------------------------------------------------------------------------------------------------------


  energy-cutoff  :      520.00
  volume of cell :     9881.61
      direct lattice vectors                 reciprocal lattice vectors
    21.138852197  0.000000000  0.000000000     0.047306258  0.000000000  0.000000000
     0.000000000 21.138852197  0.000000000     0.000000000  0.047306258  0.000000000
     0.000000000  0.000000000 22.113885220     0.000000000  0.000000000  0.045220457

  length of vectors
    21.138852197 21.138852197 22.113885220     0.047306258  0.047306258  0.045220457


 
 k-points in units of 2pi/SCALE and weight: KPOINTS created by Atomic Simulation Env
   0.00000000  0.00000000  0.00000000       1.000
 
 k-points in reciprocal lattice and weights: KPOINTS created by Atomic Simulation Env
   0.00000000  0.00000000  0.00000000       1.000
 
 position of ions in fractional coordinates (direct lattice) 
   0.56000196  0.50000000  0.62918464
   0.43999804  0.50000000  0.62918464
   0.00000000  0.00000000  0.40698411
   0.10000000  0.10000000  0.40698411
   0.00000000  0.10000000  0.50257497
   0.10000000  0.00000000  0.50257497
   0.00000000  0.20000000  0.40698411
   0.10000000  0.30000000  0.40698411
   0.00000000  0.30000000  0.50257497
   0.10000000  0.20000000  0.50257497
   0.00000000  0.40000000  0.40698411
   0.10000000  0.50000000  0.40698411
   0.00000000  0.50000000  0.50257497
   0.10000000  0.40000000  0.50257497
   0.00000000  0.60000000  0.40698411
   0.10000000  0.70000000  0.40698411
   0.00000000  0.70000000  0.50257497
   0.10000000  0.60000000  0.50257497
   0.00000000  0.80000000  0.40698411
   0.10000000  0.90000000  0.40698411
   0.00000000  0.90000000  0.50257497
   0.10000000  0.80000000  0.50257497
   0.20000000  0.00000000  0.40698411
   0.30000000  0.10000000  0.40698411
   0.20000000  0.10000000  0.50257497
   0.30000000  0.00000000  0.50257497
   0.20000000  0.20000000  0.40698411
   0.30000000  0.30000000  0.40698411
   0.20000000  0.30000000  0.50257497
   0.30000000  0.20000000  0.50257497
   0.20000000  0.40000000  0.40698411
   0.30000000  0.50000000  0.40698411
   0.20000000  0.50000000  0.50257497
   0.30000000  0.40000000  0.50257497
   0.20000000  0.60000000  0.40698411
   0.30000000  0.70000000  0.40698411
   0.20000000  0.70000000  0.50257497
   0.30000000  0.60000000  0.50257497
   0.20000000  0.80000000  0.40698411
   0.30000000  0.90000000  0.40698411
   0.20000000  0.90000000  0.50257497
   0.30000000  0.80000000  0.50257497
   0.40000000  0.00000000  0.40698411
   0.50000000  0.10000000  0.40698411
   0.40000000  0.10000000  0.50257497
   0.50000000  0.00000000  0.50257497
   0.40000000  0.20000000  0.40698411
   0.50000000  0.30000000  0.40698411
   0.40000000  0.30000000  0.50257497
   0.50000000  0.20000000  0.50257497
   0.40000000  0.40000000  0.40698411
   0.50000000  0.50000000  0.40698411
   0.40000000  0.50000000  0.50257497
   0.50000000  0.40000000  0.50257497
   0.40000000  0.60000000  0.40698411
   0.50000000  0.70000000  0.40698411
   0.40000000  0.70000000  0.50257497
   0.50000000  0.60000000  0.50257497
   0.40000000  0.80000000  0.40698411
   0.50000000  0.90000000  0.40698411
   0.40000000  0.90000000  0.50257497
   0.50000000  0.80000000  0.50257497
   0.60000000  0.00000000  0.40698411
   0.70000000  0.10000000  0.40698411
   0.60000000  0.10000000  0.50257497
   0.70000000  0.00000000  0.50257497
   0.60000000  0.20000000  0.40698411
   0.70000000  0.30000000  0.40698411
   0.60000000  0.30000000  0.50257497
   0.70000000  0.20000000  0.50257497
   0.60000000  0.40000000  0.40698411
   0.70000000  0.50000000  0.40698411
   0.60000000  0.50000000  0.50257497
   0.70000000  0.40000000  0.50257497
   0.60000000  0.60000000  0.40698411
   0.70000000  0.70000000  0.40698411
   0.60000000  0.70000000  0.50257497
   0.70000000  0.60000000  0.50257497
   0.60000000  0.80000000  0.40698411
   0.70000000  0.90000000  0.40698411
   0.60000000  0.90000000  0.50257497
   0.70000000  0.80000000  0.50257497
   0.80000000  0.00000000  0.40698411
   0.90000000  0.10000000  0.40698411
   0.80000000  0.10000000  0.50257497
   0.90000000  0.00000000  0.50257497
   0.80000000  0.20000000  0.40698411
   0.90000000  0.30000000  0.40698411
   0.80000000  0.30000000  0.50257497
   0.90000000  0.20000000  0.50257497
   0.80000000  0.40000000  0.40698411
   0.90000000  0.50000000  0.40698411
   0.80000000  0.50000000  0.50257497
   0.90000000  0.40000000  0.50257497
   0.80000000  0.60000000  0.40698411
   0.90000000  0.70000000  0.40698411
   0.80000000  0.70000000  0.50257497
   0.90000000  0.60000000  0.50257497
   0.80000000  0.80000000  0.40698411
   0.90000000  0.90000000  0.40698411
   0.80000000  0.90000000  0.50257497
   0.90000000  0.80000000  0.50257497
   0.00000000  0.00000000  0.50257497
   0.10000000  0.10000000  0.50257497
   0.00000000  0.10000000  0.40698411
   0.10000000  0.00000000  0.40698411
   0.00000000  0.20000000  0.50257497
   0.10000000  0.30000000  0.50257497
   0.00000000  0.30000000  0.40698411
   0.10000000  0.20000000  0.40698411
   0.00000000  0.40000000  0.50257497
   0.10000000  0.50000000  0.50257497
   0.00000000  0.50000000  0.40698411
   0.10000000  0.40000000  0.40698411
   0.00000000  0.60000000  0.50257497
   0.10000000  0.70000000  0.50257497
   0.00000000  0.70000000  0.40698411
   0.10000000  0.60000000  0.40698411
   0.00000000  0.80000000  0.50257497
   0.10000000  0.90000000  0.50257497
   0.00000000  0.90000000  0.40698411
   0.10000000  0.80000000  0.40698411
   0.20000000  0.00000000  0.50257497
   0.30000000  0.10000000  0.50257497
   0.20000000  0.10000000  0.40698411
   0.30000000  0.00000000  0.40698411
   0.20000000  0.20000000  0.50257497
   0.30000000  0.30000000  0.50257497
   0.20000000  0.30000000  0.40698411
   0.30000000  0.20000000  0.40698411
   0.20000000  0.40000000  0.50257497
   0.30000000  0.50000000  0.50257497
   0.20000000  0.50000000  0.40698411
   0.30000000  0.40000000  0.40698411
   0.20000000  0.60000000  0.50257497
   0.30000000  0.70000000  0.50257497
   0.20000000  0.70000000  0.40698411
   0.30000000  0.60000000  0.40698411
   0.20000000  0.80000000  0.50257497
   0.30000000  0.90000000  0.50257497
   0.20000000  0.90000000  0.40698411
   0.30000000  0.80000000  0.40698411
   0.40000000  0.00000000  0.50257497
   0.50000000  0.10000000  0.50257497
   0.40000000  0.10000000  0.40698411
   0.50000000  0.00000000  0.40698411
   0.40000000  0.20000000  0.50257497
   0.50000000  0.30000000  0.50257497
   0.40000000  0.30000000  0.40698411
   0.50000000  0.20000000  0.40698411
   0.40000000  0.40000000  0.50257497
   0.50000000  0.50000000  0.50257497
   0.40000000  0.50000000  0.40698411
   0.50000000  0.40000000  0.40698411
   0.40000000  0.60000000  0.50257497
   0.50000000  0.70000000  0.50257497
   0.40000000  0.70000000  0.40698411
   0.50000000  0.60000000  0.40698411
   0.40000000  0.80000000  0.50257497
   0.50000000  0.90000000  0.50257497
   0.40000000  0.90000000  0.40698411
   0.50000000  0.80000000  0.40698411
   0.60000000  0.00000000  0.50257497
   0.70000000  0.10000000  0.50257497
   0.60000000  0.10000000  0.40698411
   0.70000000  0.00000000  0.40698411
   0.60000000  0.20000000  0.50257497
   0.70000000  0.30000000  0.50257497
   0.60000000  0.30000000  0.40698411
   0.70000000  0.20000000  0.40698411
   0.60000000  0.40000000  0.50257497
   0.70000000  0.50000000  0.50257497
   0.60000000  0.50000000  0.40698411
   0.70000000  0.40000000  0.40698411
   0.60000000  0.60000000  0.50257497
   0.70000000  0.70000000  0.50257497
   0.60000000  0.70000000  0.40698411
   0.70000000  0.60000000  0.40698411
   0.60000000  0.80000000  0.50257497
   0.70000000  0.90000000  0.50257497
   0.60000000  0.90000000  0.40698411
   0.70000000  0.80000000  0.40698411
   0.80000000  0.00000000  0.50257497
   0.90000000  0.10000000  0.50257497
   0.80000000  0.10000000  0.40698411
   0.90000000  0.00000000  0.40698411
   0.80000000  0.20000000  0.50257497
   0.90000000  0.30000000  0.50257497
   0.80000000  0.30000000  0.40698411
   0.90000000  0.20000000  0.40698411
   0.80000000  0.40000000  0.50257497
   0.90000000  0.50000000  0.50257497
   0.80000000  0.50000000  0.40698411
   0.90000000  0.40000000  0.40698411
   0.80000000  0.60000000  0.50257497
   0.90000000  0.70000000  0.50257497
   0.80000000  0.70000000  0.40698411
   0.90000000  0.60000000  0.40698411
   0.80000000  0.80000000  0.50257497
   0.90000000  0.90000000  0.50257497
   0.80000000  0.90000000  0.40698411
   0.90000000  0.80000000  0.40698411
 
 position of ions in cartesian coordinates  (Angst):
  11.83779862 10.56942610 13.91371695
   9.30105358 10.56942610 13.91371695
   0.00000000  0.00000000  9.00000000
   2.11388522  2.11388522  9.00000000
   0.00000000  2.11388522 11.11388522
   2.11388522  0.00000000 11.11388522
   0.00000000  4.22777044  9.00000000
   2.11388522  6.34165566  9.00000000
   0.00000000  6.34165566 11.11388522
   2.11388522  4.22777044 11.11388522
   0.00000000  8.45554088  9.00000000
   2.11388522 10.56942610  9.00000000
   0.00000000 10.56942610 11.11388522
   2.11388522  8.45554088 11.11388522
   0.00000000 12.68331132  9.00000000
   2.11388522 14.79719654  9.00000000
   0.00000000 14.79719654 11.11388522
   2.11388522 12.68331132 11.11388522
   0.00000000 16.91108176  9.00000000
   2.11388522 19.02496698  9.00000000
   0.00000000 19.02496698 11.11388522
   2.11388522 16.91108176 11.11388522
   4.22777044  0.00000000  9.00000000
   6.34165566  2.11388522  9.00000000
   4.22777044  2.11388522 11.11388522
   6.34165566  0.00000000 11.11388522
   4.22777044  4.22777044  9.00000000
   6.34165566  6.34165566  9.00000000
   4.22777044  6.34165566 11.11388522
   6.34165566  4.22777044 11.11388522
   4.22777044  8.45554088  9.00000000
   6.34165566 10.56942610  9.00000000
   4.22777044 10.56942610 11.11388522
   6.34165566  8.45554088 11.11388522
   4.22777044 12.68331132  9.00000000
   6.34165566 14.79719654  9.00000000
   4.22777044 14.79719654 11.11388522
   6.34165566 12.68331132 11.11388522
   4.22777044 16.91108176  9.00000000
   6.34165566 19.02496698  9.00000000
   4.22777044 19.02496698 11.11388522
   6.34165566 16.91108176 11.11388522
   8.45554088  0.00000000  9.00000000
  10.56942610  2.11388522  9.00000000
   8.45554088  2.11388522 11.11388522
  10.56942610  0.00000000 11.11388522
   8.45554088  4.22777044  9.00000000
  10.56942610  6.34165566  9.00000000
   8.45554088  6.34165566 11.11388522
  10.56942610  4.22777044 11.11388522
   8.45554088  8.45554088  9.00000000
  10.56942610 10.56942610  9.00000000
   8.45554088 10.56942610 11.11388522
  10.56942610  8.45554088 11.11388522
   8.45554088 12.68331132  9.00000000
  10.56942610 14.79719654  9.00000000
   8.45554088 14.79719654 11.11388522
  10.56942610 12.68331132 11.11388522
   8.45554088 16.91108176  9.00000000
  10.56942610 19.02496698  9.00000000
   8.45554088 19.02496698 11.11388522
  10.56942610 16.91108176 11.11388522
  12.68331132  0.00000000  9.00000000
  14.79719654  2.11388522  9.00000000
  12.68331132  2.11388522 11.11388522
  14.79719654  0.00000000 11.11388522
  12.68331132  4.22777044  9.00000000
  14.79719654  6.34165566  9.00000000
  12.68331132  6.34165566 11.11388522
  14.79719654  4.22777044 11.11388522
  12.68331132  8.45554088  9.00000000
  14.79719654 10.56942610  9.00000000
  12.68331132 10.56942610 11.11388522
  14.79719654  8.45554088 11.11388522
  12.68331132 12.68331132  9.00000000
  14.79719654 14.79719654  9.00000000
  12.68331132 14.79719654 11.11388522
  14.79719654 12.68331132 11.11388522
  12.68331132 16.91108176  9.00000000
  14.79719654 19.02496698  9.00000000
  12.68331132 19.02496698 11.11388522
  14.79719654 16.91108176 11.11388522
  16.91108176  0.00000000  9.00000000
  19.02496698  2.11388522  9.00000000
  16.91108176  2.11388522 11.11388522
  19.02496698  0.00000000 11.11388522
  16.91108176  4.22777044  9.00000000
  19.02496698  6.34165566  9.00000000
  16.91108176  6.34165566 11.11388522
  19.02496698  4.22777044 11.11388522
  16.91108176  8.45554088  9.00000000
  19.02496698 10.56942610  9.00000000
  16.91108176 10.56942610 11.11388522
  19.02496698  8.45554088 11.11388522
  16.91108176 12.68331132  9.00000000
  19.02496698 14.79719654  9.00000000
  16.91108176 14.79719654 11.11388522
  19.02496698 12.68331132 11.11388522
  16.91108176 16.91108176  9.00000000
  19.02496698 19.02496698  9.00000000
  16.91108176 19.02496698 11.11388522
  19.02496698 16.91108176 11.11388522
   0.00000000  0.00000000 11.11388522
   2.11388522  2.11388522 11.11388522
   0.00000000  2.11388522  9.00000000
   2.11388522  0.00000000  9.00000000
   0.00000000  4.22777044 11.11388522
   2.11388522  6.34165566 11.11388522
   0.00000000  6.34165566  9.00000000
   2.11388522  4.22777044  9.00000000
   0.00000000  8.45554088 11.11388522
   2.11388522 10.56942610 11.11388522
   0.00000000 10.56942610  9.00000000
   2.11388522  8.45554088  9.00000000
   0.00000000 12.68331132 11.11388522
   2.11388522 14.79719654 11.11388522
   0.00000000 14.79719654  9.00000000
   2.11388522 12.68331132  9.00000000
   0.00000000 16.91108176 11.11388522
   2.11388522 19.02496698 11.11388522
   0.00000000 19.02496698  9.00000000
   2.11388522 16.91108176  9.00000000
   4.22777044  0.00000000 11.11388522
   6.34165566  2.11388522 11.11388522
   4.22777044  2.11388522  9.00000000
   6.34165566  0.00000000  9.00000000
   4.22777044  4.22777044 11.11388522
   6.34165566  6.34165566 11.11388522
   4.22777044  6.34165566  9.00000000
   6.34165566  4.22777044  9.00000000
   4.22777044  8.45554088 11.11388522
   6.34165566 10.56942610 11.11388522
   4.22777044 10.56942610  9.00000000
   6.34165566  8.45554088  9.00000000
   4.22777044 12.68331132 11.11388522
   6.34165566 14.79719654 11.11388522
   4.22777044 14.79719654  9.00000000
   6.34165566 12.68331132  9.00000000
   4.22777044 16.91108176 11.11388522
   6.34165566 19.02496698 11.11388522
   4.22777044 19.02496698  9.00000000
   6.34165566 16.91108176  9.00000000
   8.45554088  0.00000000 11.11388522
  10.56942610  2.11388522 11.11388522
   8.45554088  2.11388522  9.00000000
  10.56942610  0.00000000  9.00000000
   8.45554088  4.22777044 11.11388522
  10.56942610  6.34165566 11.11388522
   8.45554088  6.34165566  9.00000000
  10.56942610  4.22777044  9.00000000
   8.45554088  8.45554088 11.11388522
  10.56942610 10.56942610 11.11388522
   8.45554088 10.56942610  9.00000000
  10.56942610  8.45554088  9.00000000
   8.45554088 12.68331132 11.11388522
  10.56942610 14.79719654 11.11388522
   8.45554088 14.79719654  9.00000000
  10.56942610 12.68331132  9.00000000
   8.45554088 16.91108176 11.11388522
  10.56942610 19.02496698 11.11388522
   8.45554088 19.02496698  9.00000000
  10.56942610 16.91108176  9.00000000
  12.68331132  0.00000000 11.11388522
  14.79719654  2.11388522 11.11388522
  12.68331132  2.11388522  9.00000000
  14.79719654  0.00000000  9.00000000
  12.68331132  4.22777044 11.11388522
  14.79719654  6.34165566 11.11388522
  12.68331132  6.34165566  9.00000000
  14.79719654  4.22777044  9.00000000
  12.68331132  8.45554088 11.11388522
  14.79719654 10.56942610 11.11388522
  12.68331132 10.56942610  9.00000000
  14.79719654  8.45554088  9.00000000
  12.68331132 12.68331132 11.11388522
  14.79719654 14.79719654 11.11388522
  12.68331132 14.79719654  9.00000000
  14.79719654 12.68331132  9.00000000
  12.68331132 16.91108176 11.11388522
  14.79719654 19.02496698 11.11388522
  12.68331132 19.02496698  9.00000000
  14.79719654 16.91108176  9.00000000
  16.91108176  0.00000000 11.11388522
  19.02496698  2.11388522 11.11388522
  16.91108176  2.11388522  9.00000000
  19.02496698  0.00000000  9.00000000
  16.91108176  4.22777044 11.11388522
  19.02496698  6.34165566 11.11388522
  16.91108176  6.34165566  9.00000000
  19.02496698  4.22777044  9.00000000
  16.91108176  8.45554088 11.11388522
  19.02496698 10.56942610 11.11388522
  16.91108176 10.56942610  9.00000000
  19.02496698  8.45554088  9.00000000
  16.91108176 12.68331132 11.11388522
  19.02496698 14.79719654 11.11388522
  16.91108176 14.79719654  9.00000000
  19.02496698 12.68331132  9.00000000
  16.91108176 16.91108176 11.11388522
  19.02496698 19.02496698 11.11388522
  16.91108176 19.02496698  9.00000000
  19.02496698 16.91108176  9.00000000
 


--------------------------------------------------------------------------------------------------------


 k-point   1 :   0.0000 0.0000 0.0000  plane waves:  265979

 maximum and minimum number of plane-waves per node :     33256    33239

 maximum number of plane-waves:    265979
 maximum index in each direction: 
   IXMAX=   39   IYMAX=   39   IZMAX=   41
   IXMIN=  -39   IYMIN=  -39   IZMIN=  -41


 real space projection operators:
  total allocation   :      56240.75 KBytes
  max/ min on nodes  :       7357.91       6798.38


 parallel 3D FFT for wavefunctions:
    minimum data exchange during FFTs selected (reduces bandwidth)
 parallel 3D FFT for charge:
    minimum data exchange during FFTs selected (reduces bandwidth)


 total amount of memory used by VASP MPI-rank0   179890. kBytes
=======================================================================

   base      :      30000. kBytes
   nonlr-proj:      29176. kBytes
   fftplans  :      22537. kBytes
   grid      :      54312. kBytes
   one-center:        404. kBytes
   wavefun   :      43461. kBytes
 
     INWAV:  cpu time      0.0005: real time      0.0007
 Broyden mixing: mesh for mixing (old mesh)
   NGX = 79   NGY = 79   NGZ = 83
  (NGX  =320   NGY  =320   NGZ  =336)
  gives a total of 518003 points

 initial charge density was supplied:
 charge density of overlapping atoms calculated
 number of electron    1422.0000000 magnetization 
 keeping initial charge density in first step


--------------------------------------------------------------------------------------------------------


 Maximum index for non-local projection operator          750
 Maximum index for augmentation-charges          495 (set IRDMAX)


--------------------------------------------------------------------------------------------------------


 First call to EWALD:  gamma=   0.083
 Maximum number of real-space cells 3x 3x 3
 Maximum number of reciprocal cells 3x 3x 3

    FEWALD:  cpu time      0.0185: real time      0.0185


--------------------------------------- Ionic step        1  -------------------------------------------




--------------------------------------- Iteration      1(   1)  ---------------------------------------


    POTLOK:  cpu time      1.7344: real time      1.7397
    SETDIJ:  cpu time      5.2035: real time      5.2062
    TRIAL :  cpu time     26.0554: real time     26.1776
    CORREC:  cpu time      0.0010: real time      0.0010
    --------------------------------------------
      LOOP:  cpu time     33.0087: real time     33.1468

 eigenvalue-minimisations  :  2624
 total energy-change (2. order) :-0.6547291E+15  (-0.6033789E+15)
 number of electron    1422.0000000 magnetization 
 augmentation part     1422.0000000 magnetization 

 DIPCOR: dipole corrections for dipol
 direction  3 min pos     1,
 dipolmoment           0.000000      0.000000      0.000232 electrons x Angstroem
 Tr[quadrupol]   -110646.909803

 energy correction for charged system         0.000000 eV
 dipol+quadrupol energy correction           -0.000000 eV
 added-field ion interaction          0.006143 eV  (added to PSCEN)


 Free energy of the ion-electron system (eV)
  ---------------------------------------------------
  alpha Z        PSCENC =      1365.76296143
  Ewald energy   TEWEN  =    414254.91878850
  -Hartree energ DENC   =   -522466.75604299
  -exchange      EXHF   =         0.00000000
  -V(xc)+E(xc)   XCENC  =  -1646735.46076307
  PAW double counting   =     99567.18905606  -112118.36982856
  entropy T*S    EENTRO =         0.00000000
  eigenvalues    EBANDS = ******************
  atomic energy  EATOM  =    150758.00253140
  ---------------------------------------------------
  free energy    TOTEN  = ****************** eV

  energy without entropy =******************  energy(sigma->0) =******************


--------------------------------------------------------------------------------------------------------




--------------------------------------- Iteration      1(   2)  ---------------------------------------


[...]
   -.783E+01 -.390E+01 0.706E+03   0.786E+01 0.395E+01 -.709E+03   -.372E-01 -.247E-01 0.371E+01
   -.982E+01 -.107E+02 -.691E+03   0.983E+01 0.108E+02 0.694E+03   -.133E-01 -.352E-01 -.309E+01
   -.356E+01 -.398E+01 -.694E+03   0.352E+01 0.390E+01 0.697E+03   0.111E-01 -.431E-02 -.301E+01
   -.480E+01 -.429E+01 0.702E+03   0.477E+01 0.428E+01 -.706E+03   -.353E-02 -.182E-01 0.342E+01
   -.403E+01 -.537E+01 0.702E+03   0.402E+01 0.538E+01 -.706E+03   -.331E-02 -.191E-01 0.352E+01
 -----------------------------------------------------------------------------------------------
   -.236E+00 0.199E+00 -.112E+03   0.393E-11 -.117E-11 -.398E-11   0.230E+00 0.355E-01 0.154E+03
 
 
 POSITION                                       TOTAL-FORCE (eV/Angst)
 -----------------------------------------------------------------------------------
     11.83780     10.56943     13.91372         1.833556      0.006884      0.106097
      9.30105     10.56943     13.91372        -1.764652     -0.003690      0.170019
      0.00000      0.00000      9.00000         0.009016     -0.004134      1.463114
      2.11389      2.11389      9.00000         0.010725      0.009878      1.308231
      0.00000      2.11389     11.11389        -0.002057     -0.008644     -2.118576
      2.11389      0.00000     11.11389        -0.017408     -0.020941     -2.066089
      0.00000      4.22777      9.00000        -0.000621      0.023345      1.087646
      2.11389      6.34166      9.00000         0.007702     -0.001095      1.462126
      0.00000      6.34166     11.11389        -0.016789     -0.020937     -2.354612
      2.11389      4.22777     11.11389         0.011262     -0.001246     -0.382942
      0.00000      8.45554      9.00000        -0.009340     -0.002564      0.821482
      2.11389     10.56943      9.00000        -0.016354     -0.003701      0.922429
      0.00000     10.56943     11.11389        -0.015985     -0.014261     -1.676131
      2.11389      8.45554     11.11389        -0.009105     -0.005141     -0.695261
      0.00000     12.68331      9.00000         0.011314      0.007042      1.847518
      2.11389     14.79720      9.00000        -0.014927      0.016124      1.578204
      0.00000     14.79720     11.11389        -0.029349      0.007207     -2.842189
      2.11389     12.68331     11.11389        -0.024402      0.009347     -2.185999
      0.00000     16.91108      9.00000        -0.023301     -0.008935      1.262732
      2.11389     19.02497      9.00000         0.008539     -0.008329      0.565777
      0.00000     19.02497     11.11389         0.005305     -0.032364     -0.868933
      2.11389     16.91108     11.11389         0.019366      0.031697     -0.991861
      4.22777      0.00000      9.00000        -0.005612      0.008876      1.659269
      6.34166      2.11389      9.00000        -0.013290      0.024427      0.832730
      4.22777      2.11389     11.11389        -0.010589      0.001605     -0.833772
      6.34166      0.00000     11.11389        -0.026260     -0.021148     -2.263203
      4.22777      4.22777      9.00000        -0.027101     -0.028704      1.646988
      6.34166      6.34166      9.00000        -0.018223     -0.032682      1.500837
      4.22777      6.34166     11.11389        -0.013493     -0.019108     -1.553770
      6.34166      4.22777     11.11389        -0.009269     -0.017882     -2.220941
      4.22777      8.45554      9.00000        -0.032333     -0.020961      1.337714
      6.34166     10.56943      9.00000        -0.070125     -0.005689      0.806552
      4.22777     10.56943     11.11389        -0.070487      0.018675     -0.658831
      6.34166      8.45554     11.11389        -0.072190     -0.047547     -1.087115
      4.22777     12.68331      9.00000        -0.041612      0.012472      1.651240
      6.34166     14.79720      9.00000        -0.026077      0.061279      0.955189
      4.22777     14.79720     11.11389        -0.024431      0.031671     -0.567414
      6.34166     12.68331     11.11389         0.008268     -0.003282     -2.593482
      4.22777     16.91108      9.00000        -0.013166      0.013841      1.035246
      6.34166     19.02497      9.00000        -0.001559     -0.008901      0.690149
      4.22777     19.02497     11.11389         0.009622      0.003017     -1.995893
      6.34166     16.91108     11.11389        -0.025402      0.039248     -0.931987
      8.45554      0.00000      9.00000         0.033925      0.005051      1.523557
     10.56943      2.11389      9.00000         0.014695     -0.012486      1.831276
      8.45554      2.11389     11.11389         0.027507     -0.016466     -0.570978
     10.56943      0.00000     11.11389         0.075078     -0.007767     -1.512533
      8.45554      4.22777      9.00000        -0.024888     -0.023621      0.789662
     10.56943      6.34166      9.00000         0.004200     -0.062992      1.883831
      8.45554      6.34166     11.11389         0.017745     -0.069870     -1.431052
     10.56943      4.22777     11.11389        -0.021982     -0.023415     -0.889904
      8.45554      8.45554      9.00000        -0.037122     -0.050092      1.675542
     10.56943     10.56943      9.00000        -0.015166     -0.013128      0.988766
      8.45554     10.56943     11.11389        -0.228082      0.006454     -0.239254
     10.56943      8.45554     11.11389        -0.003991     -0.131910     -0.191153
      8.45554     12.68331      9.00000        -0.047115      0.051026      1.008653
     10.56943     14.79720      9.00000         0.001859      0.082350      1.381567
      8.45554     14.79720     11.11389         0.001312      0.056852     -2.099387
     10.56943     12.68331     11.11389         0.009898      0.144640      0.097363
      8.45554     16.91108      9.00000         0.010638      0.058044      1.010152
     10.56943     19.02497      9.00000        -0.006812      0.006652      1.592910
      8.45554     19.02497     11.11389        -0.002681     -0.012174     -1.905532
     10.56943     16.91108     11.11389         0.004501      0.021853     -1.338588
     12.68331      0.00000      9.00000         0.014947     -0.000593      1.482789
     14.79720      2.11389      9.00000        -0.017076     -0.012273      1.228499
     12.68331      2.11389     11.11389         0.006461     -0.006847     -1.961974
     14.79720      0.00000     11.11389        -0.026803     -0.026320     -1.012226
     12.68331      4.22777      9.00000        -0.000810     -0.036490      1.706724
     14.79720      6.34166      9.00000         0.028432     -0.050027      1.073311
     12.68331      6.34166     11.11389         0.001107     -0.059886     -1.363809
     14.79720      4.22777     11.11389        -0.005449     -0.006728     -0.633936
     12.68331      8.45554      9.00000         0.043166     -0.051877      1.472910
     14.79720     10.56943      9.00000         0.064057     -0.008969      1.012452
     12.68331     10.56943     11.11389         0.226144      0.003209     -0.446987
     14.79720      8.45554     11.11389         0.006358     -0.017958     -2.003506
     12.68331     12.68331      9.00000         0.053557      0.053946      1.554136
     14.79720     14.79720      9.00000         0.023845      0.029237      1.070633
     12.68331     14.79720     11.11389        -0.005277      0.049146     -1.297400
     14.79720     12.68331     11.11389         0.049355      0.062261     -0.116922
     12.68331     16.91108      9.00000         0.020072      0.038958      1.529380
     14.79720     19.02497      9.00000         0.000911     -0.021827      1.428296
     12.68331     19.02497     11.11389        -0.004449      0.019501     -2.131002
     14.79720     16.91108     11.11389         0.004858      0.036326     -2.088502
     16.91108      0.00000      9.00000        -0.006799     -0.009264      0.838468
     19.02497      2.11389      9.00000         0.001239      0.017972      1.096693
     16.91108      2.11389     11.11389        -0.019645      0.003589     -1.815403
     19.02497      0.00000     11.11389         0.023444      0.011453     -1.909432
     16.91108      4.22777      9.00000        -0.018551      0.017098      1.345106
     19.02497      6.34166      9.00000        -0.001293     -0.019097      1.200963
     16.91108      6.34166     11.11389         0.028493     -0.004432     -2.189572
     19.02497      4.22777     11.11389        -0.016684      0.023802     -1.983887
     16.91108      8.45554      9.00000         0.015273     -0.002074      1.841318
     19.02497     10.56943      9.00000        -0.009177     -0.007645      1.557325
     16.91108     10.56943     11.11389         0.072254      0.020282     -1.652030
     19.02497      8.45554     11.11389         0.022488      0.001631     -0.637564
     16.91108     12.68331      9.00000         0.034071      0.013548      1.622415
     19.02497     14.79720      9.00000         0.027851     -0.000900      1.682057
     16.91108     14.79720     11.11389         0.011177      0.019867     -2.189556
     19.02497     12.68331     11.11389        -0.002796     -0.000669     -1.997963
     16.91108     16.91108      9.00000        -0.013682      0.015878      0.924829
     19.02497     19.02497      9.00000        -0.018565     -0.019997      1.648496
     16.91108     19.02497     11.11389        -0.015502     -0.008636     -1.131238
     19.02497     16.91108     11.11389         0.017708      0.022526     -3.033109
      0.00000      0.00000     11.11389         0.052689      0.003642      0.431257
      2.11389      2.11389     11.11389        -0.007115      0.004097      0.463191
      0.00000      2.11389      9.00000         0.020487      0.024142     -0.401318
      2.11389      0.00000      9.00000         0.027692     -0.011845     -0.482718
      0.00000      4.22777     11.11389         0.008622      0.011189      0.456344
      2.11389      6.34166     11.11389         0.028754     -0.018952      0.425248
      0.00000      6.34166      9.00000         0.000103     -0.002777     -0.249577
      2.11389      4.22777      9.00000         0.020785      0.040172     -0.282343
      0.00000      8.45554     11.11389        -0.037485      0.030638      0.412874
      2.11389     10.56943     11.11389        -0.016370      0.010410      0.399799
      0.00000     10.56943      9.00000        -0.000391      0.003163     -0.306740
      2.11389      8.45554      9.00000         0.006268     -0.023402     -0.385278
      0.00000     12.68331     11.11389        -0.006221     -0.013782      0.401898
      2.11389     14.79720     11.11389         0.028925      0.013496      0.430051
      0.00000     14.79720      9.00000        -0.023110     -0.023761     -0.185609
      2.11389     12.68331      9.00000        -0.029822      0.005444     -0.375677
      0.00000     16.91108     11.11389        -0.020366     -0.004374      0.485578
      2.11389     19.02497     11.11389         0.026113     -0.034984      0.407935
      0.00000     19.02497      9.00000        -0.005964     -0.027995     -0.184877
      2.11389     16.91108      9.00000         0.016947     -0.004317     -0.129517
      4.22777      0.00000     11.11389         0.003903     -0.007997      0.474161
      6.34166      2.11389     11.11389        -0.004432      0.010907      0.344255
      4.22777      2.11389      9.00000         0.019607      0.014627     -0.167809
      6.34166      0.00000      9.00000         0.000999     -0.001200     -0.137542
      4.22777      4.22777     11.11389         0.012021      0.020132      0.482284
      6.34166      6.34166     11.11389        -0.037626     -0.069643      0.347227
      4.22777      6.34166      9.00000        -0.018403     -0.008568     -0.172432
      6.34166      4.22777      9.00000         0.014891     -0.013804     -0.303682
      4.22777      8.45554     11.11389        -0.023516     -0.018793      0.384702
      6.34166     10.56943     11.11389        -0.104471     -0.007143      0.443748
      4.22777     10.56943      9.00000        -0.006813     -0.029465     -0.190402
      6.34166      8.45554      9.00000        -0.044876     -0.047228     -0.157075
      4.22777     12.68331     11.11389        -0.058229     -0.008074      0.455501
      6.34166     14.79720     11.11389        -0.029398      0.049589      0.378388
      4.22777     14.79720      9.00000         0.003789      0.050279     -0.243918
      6.34166     12.68331      9.00000        -0.035532      0.031421     -0.061254
      4.22777     16.91108     11.11389        -0.044233      0.009626      0.435074
      6.34166     19.02497     11.11389        -0.012056      0.005871      0.433314
      4.22777     19.02497      9.00000         0.018315     -0.040867     -0.186240
      6.34166     16.91108      9.00000        -0.003547      0.019107     -0.258136
      8.45554      0.00000     11.11389        -0.000136      0.022499      0.461232
     10.56943      2.11389     11.11389        -0.006517     -0.035599      0.437911
      8.45554      2.11389      9.00000         0.011255     -0.004691     -0.435080
     10.56943      0.00000      9.00000         0.014398      0.014633     -0.360056
      8.45554      4.22777     11.11389        -0.048617     -0.028608      0.328764
     10.56943      6.34166     11.11389        -0.000870     -0.048284      0.411527
      8.45554      6.34166      9.00000        -0.041874     -0.020081     -0.341328
     10.56943      4.22777      9.00000        -0.008715     -0.072668     -0.389682
      8.45554      8.45554     11.11389        -0.086413     -0.136243      0.346553
     10.56943     10.56943     11.11389        -0.028065     -0.015047     -0.561873
      8.45554     10.56943      9.00000        -0.107707     -0.028998     -0.414988
     10.56943      8.45554      9.00000        -0.007289     -0.113134     -0.433268
      8.45554     12.68331     11.11389        -0.093227      0.146641      0.266497
     10.56943     14.79720     11.11389         0.010139      0.084221      0.379674
      8.45554     14.79720      9.00000        -0.071184      0.053121     -0.170262
     10.56943     12.68331      9.00000         0.028870      0.094338     -0.352223
      8.45554     16.91108     11.11389        -0.015166      0.043149      0.329369
     10.56943     19.02497     11.11389         0.011954      0.016684      0.453480
      8.45554     19.02497      9.00000        -0.002617     -0.020430     -0.187869
     10.56943     16.91108      9.00000        -0.032212      0.024983     -0.127126
     12.68331      0.00000     11.11389         0.008037     -0.011917      0.458981
     14.79720      2.11389     11.11389        -0.013557      0.007022      0.394854
     12.68331      2.11389      9.00000         0.022544     -0.010278     -0.080772
     14.79720      0.00000      9.00000        -0.046368      0.023978     -0.256320
     12.68331      4.22777     11.11389         0.054075     -0.059032      0.409041
     14.79720      6.34166     11.11389         0.041397     -0.061263      0.365417
     12.68331      6.34166      9.00000         0.018455     -0.029319     -0.321464
     14.79720      4.22777      9.00000         0.012285     -0.000713     -0.222257
     12.68331      8.45554     11.11389         0.079105     -0.136090      0.352083
     14.79720     10.56943     11.11389         0.087684      0.019747      0.436437
     12.68331     10.56943      9.00000         0.121252     -0.004482     -0.447629
     14.79720      8.45554      9.00000         0.085284     -0.012878     -0.092040
     12.68331     12.68331     11.11389         0.149336      0.172240      0.331393
     14.79720     14.79720     11.11389        -0.007169      0.036117      0.356548
     12.68331     14.79720      9.00000         0.086851      0.012575     -0.254392
     14.79720     12.68331      9.00000         0.048039      0.064246     -0.328933
     12.68331     16.91108     11.11389         0.020065      0.029657      0.423075
     14.79720     19.02497     11.11389        -0.002051     -0.020454      0.464625
     12.68331     19.02497      9.00000         0.009619      0.015728     -0.328462
     14.79720     16.91108      9.00000         0.042794      0.031821     -0.221817
     16.91108      0.00000     11.11389        -0.010397     -0.015355      0.475129
     19.02497      2.11389     11.11389        -0.003206      0.044382      0.515853
     16.91108      2.11389      9.00000        -0.058773      0.012007     -0.249361
     19.02497      0.00000      9.00000        -0.043752     -0.018227     -0.234428
     16.91108      4.22777     11.11389         0.017595      0.020722      0.451059
     19.02497      6.34166     11.11389        -0.012944     -0.038290      0.425368
     16.91108      6.34166      9.00000         0.000416     -0.008859     -0.235332
     19.02497      4.22777      9.00000         0.005251      0.038103     -0.109625
     16.91108      8.45554     11.11389         0.059126     -0.006315      0.411770
     19.02497     10.56943     11.11389         0.019580     -0.014302      0.438784
     16.91108     10.56943      9.00000         0.015044      0.004325     -0.005860
     19.02497      8.45554      9.00000        -0.005072      0.010794     -0.188018
     16.91108     12.68331     11.11389         0.051571     -0.017788      0.418800
     19.02497     14.79720     11.11389         0.039301      0.013903      0.390716
     16.91108     14.79720      9.00000         0.005763     -0.022549     -0.126583
     19.02497     12.68331      9.00000        -0.015631      0.024137     -0.191428
     16.91108     16.91108     11.11389        -0.002770      0.038812      0.419062
     19.02497     19.02497     11.11389        -0.024267     -0.078593      0.428805
     16.91108     19.02497      9.00000        -0.024494     -0.039435     -0.536387
     19.02497     16.91108      9.00000        -0.014352     -0.011117     -0.356599
 -----------------------------------------------------------------------------------
    total drift:                               -0.006292      0.234656     41.658555


--------------------------------------------------------------------------------------------------------



  FREE ENERGIE OF THE ION-ELECTRON SYSTEM (eV)
  ---------------------------------------------------
  free  energy   TOTEN  =     -1736.74391888 eV

  energy  without entropy=    -1736.74065989  energy(sigma->0) =    -1736.74228938
 


--------------------------------------------------------------------------------------------------------


    POTLOK:  cpu time      8.0201: real time      8.0260


--------------------------------------------------------------------------------------------------------


     LOOP+:  cpu time  32384.5601: real time  32406.1951
    4ORBIT:  cpu time      0.0000: real time      0.0000

 total amount of memory used by VASP MPI-rank0   179890. kBytes
=======================================================================

   base      :      30000. kBytes
   nonlr-proj:      29176. kBytes
   fftplans  :      22537. kBytes
   grid      :      54312. kBytes
   one-center:        404. kBytes
   wavefun   :      43461. kBytes
 
  
  
 General timing and accounting informations for this job:
 ========================================================
  
                  Total CPU time used (sec):    32436.926
                            User time (sec):    32411.169
                          System time (sec):       25.757
                         Elapsed time (sec):    32459.815
  
                   Maximum memory used (kb):     1013148.
                   Average memory used (kb):          N/A
  
                          Minor page faults:       268082
                          Major page faults:            0
                 Voluntary context switches:       315857
