 **********************************************************************
                          MRCC program system
 **********************************************************************
 
                              Written by
     Mihaly Kallay, Peter R. Nagy, David Mester, Laszlo Gyevi-Nagy,
        Jozsef Csoka, P. Bernat Szabo, Zoltan Rolik, Gyula Samu,
     Jozsef Csontos, Bence Hegely, Adam Ganyecz, Istvan Ladjanszki,
       Lorant Szegedy, Bence Ladoczki, Klara Petrov, Mate Farkas,
                    Pal D. Mezei, and Reka A. Horvath
 
        Department of Physical Chemistry and Materials Science
            Budapest University of Technology and Economics
                  Budapest P.O.Box 91, H-1521 Hungary
 
                              www.mrcc.hu
 
                      Release date: March 18, 2022

 ************************ 2023-10-21 21:52:17 *************************
 Executing minp...

 Reading input from MINP...
 
 Input file:
 
calc=LNO-CCSD(T)
verbosity=3
mem=220GB
symm=off
unit=angs
scfiguess=mo
scfalg=locfit1
lcorthr=normal
bpedo=0.99999
usedisk=0
ccmaxit=400
ccsdalg=dfdirect
ccsdthreads=4
ccsdmkl=thr
ptthreads=4
ECP=MCDHF-ECP-10
basis=bse_ACVTZ
basis_sm=def2-SVP
dfbasis_scf=def2-QZVPP-RI-JK
dfbasis_cor=bse_ACVTZ_mp2fit
core=0
unit=angs
geom=xyz
4
Cu4_1
Cu     0.50843107     0.34090998     0.94550200
Cu    -0.51101120    -0.33824562    -0.94517796
Cu    -1.19887806    -1.28324042     1.10747950
Cu     1.19887806     1.28324042    -1.10747950

ghost=serialno


 
 
 Checking keyword combinations...
 
 Keywords:
 
 active=none
 agrid=ld0006-ld0590
 agrid_pssp=ld0006-ld0194
 agrid_pssp_sm=ld0006-ld0074
 basis=bse_acvtz
 basis_sm=def2-svp
 basopt=off
 bfbasis=none
 bfgsmem=10
 bfgstol=1.0d-3
 bpcompo=0.985
 bpcompv=0.98
 bpdfo=0.985
 bpocc=0.99999
 bppdo=0.999d0
 bppdv=0.98
 bpedo=0.99999
 bpedv=0.995d0
 calc=ccsd(t)
 ccmaxit=400
 ccprog=ccsd
 ccsdalg=dfdirect
 ccsdmkl=thr
 ccsdrest=off
 ccsdthreads=4
 cctol=5
 charge=0
 cialg=direct
 ciguess=off
 cmpgrp=auto
 comprest=off
 core=corr
 corembed=off
 csapprox=off
 cvs=off
 dboc=off
 delocsomofact=
 dendec=cholesky
 dens=0
 dfalg=lineq
 dfbasis_cab=none
 dfbasis_cor=bse_acvtz_mp2fit
 dfbasis_scf=def2-qzvpp-ri-jk
 dfbasis_scf_sm=def2-qzvpp-ri-jk
 dfintran=drpa
 dft=off
 dhexc=adc(2)
 diag=david
 docc=
 domrad=10.d0
 drpaalg=auto
 dual=off
 dual_df=off
 ecp=mcdhf-ecp-10
 edisp=off
 edisp_embed=off
 embed=off
 etemp=300
 epert=none
 eps=
 espcharge=off
 excrad=1.0
 excrad_fin=0.100000000D-02
 fitting=coulomb
 fmm=off
 fmmord=8
 freq=off
 gamma=1.d0
 gauss=spher
 geom=xyz
 gopt=off
 ghost=serialno
 gtol=7
 grdens=off
 gridbatch_cos=2000
 grtol=10
 guido_ct=off
 hamilton=dc
 iface=none
 intalg=auto
 itol=10
 laptol=1.d-2
 lccoporder=lccfirst
 lcorthr=normal
 lccrest=off
 lmp2dens=on
 lnoepso=1e-5
 lnoepsv=1e-6
 boysalg=jacobi
 localcc=2021
 localcorrsymm=off
 locintrf=direct
 mact=
 maxact=off
 maxdim=100
 maxex=0
 maxmicroit=100
 mcscfiguess=hf
 mem=220gb
 mmprog=
 molden=on
 mpitasks=1
 mulmet=3
 mult=
 nacto=0
 nactv=0
 naf_amp=1.d-2
 naf_cor=1e-2
 naf_scf=off
 nafalg=albe
 naftyp=jpq
 nchol=auto
 ndeps=1e-3
 nstate=1
 nsing=0
 nto=off
 ntrip=0
 occ=
 occri=off
 oniom=off
 oniom_eechg=off
 oniom_pcm=off
 oniom_qcorr=off
 optalg=
 optmaxit=50
 optetol=1e-6
 optex=0
 optgtol=1e-4
 optstol=1e-3
 orblocc=boys
 orbloce=off
 orbloco=boys
 orblocv=pao
 orblocguess=cholesky
 osveps=-1.d0
 ovirt=off
 ovltol=1e-7
 ovosnorb=80.0
 pcm=off
 popul=off
 pressure=100000
 pssp=off
 ptfreq=0.0
 ptthreads=4
 qro=off
 qscf=off
 qmmm=off
 redcost_exc=off
 redcost_tddft=0.985d0
 refdet=none
 rest=0
 rgrid=log3
 rism=off
 rohfcore=standard
 rohftype=semicanonical
 scfalg=locfit1
 scf_conv=difficult
 scfdamp=0.0d0
 scfdamp_mode=off
 scfdamp_end=50
 scfdamp_dampstep=0.d0
 scfdamp_dtol=0.0d0
 scfdamp_maxfact=0.0d0
 scfdamp_minfact=0.0d0
 scfdiis=on
 scfdiis_dtol=0.0d0
 scfdiis_end=50
 scfdiis_start=2
 scfdiis_step=1
 scfdiis_watch=off
 scfdiis_wrange=10
 scfdiis_wlimit=5
 scfdiis_delmax=2
 scfdtol=7
 scfext=10
 scfguessdens=
 scfiguess=mo
 scfloc=pm
 scflshift=0.20
 scflshift_end=8
 scflshift_dtol=0.0
 scflshift_gaptol=0.20
 scfmaxit=50
 scftype=
 scftol=6
 scspe=1.d0
 scsph=1.d0
 scsps=1.2d0
 scsps_t=1.2d0
 scspt=0.33333333333333
 scspt_t=0.33333333333333
 scspv=1.d0
 spairtol=-1.d0
 sqmprog=
 subminp=top
 symm=0
 talg=lapl
 temp=298.15
 test=off
 theodore=off
 tlmo=0.999
 tpao=0.94
 tprint=off
 uncontract=off
 unit=angs
 usedisk=0
 verbosity=3
 wpairtol=1.d-5

 ************************ 2023-10-21 21:52:17 *************************
 Executing integ...

 Allocation of 220.0 Gbytes of memory...
 
 
 Number of atoms:                  4
 Charge:                           0
 Number of electrons:             76
 Number of core electrons:        32
 Spin multiplicity:                1
 
                 Cartesian coordinates [bohr]      Atomic mass [AMU]  Z
   1  Cu    0.96079548    0.64422650    1.78673983    62.929599      29
   2  Cu   -0.96567122   -0.63919158   -1.78612748    62.929599      29
   3  Cu   -2.26555119   -2.42497295    2.09283294    62.929599      29
   4  Cu    2.26555119    2.42497295   -2.09283294    62.929599      29
 
 This molecule is an asymmetric top.
 
 Point group: C1  
 Computational point group: C1  
 
 Cartesian coordinates in standard orientation [bohr]
   1  Cu   -0.00012518    2.12856016    0.00175839
   2  Cu    0.00011011   -2.12864745    0.00175824
   3  Cu   -3.92340498   -0.00002018   -0.00175832
   4  Cu    3.92342004    0.00010747   -0.00175831
 
 Nuclear repulsion energy [au]:        454.305619966332
 
 
 Basis set information:
 
 Maximum angular momentum: i
 Maximum number of contracted Gaussians:   16
 Maximum number of primitive Gaussians:    19
 Spherical harmonic GTOs are used.
 
 
 Conventional basis set:
 
   1  Cu bse_acvtz [ 13s 12p 11d 4f 3g | 8s 8p 7d 4f 3g ]
   2  Cu bse_acvtz [ 13s 12p 11d 4f 3g | 8s 8p 7d 4f 3g ]
   3  Cu bse_acvtz [ 13s 12p 11d 4f 3g | 8s 8p 7d 4f 3g ]
   4  Cu bse_acvtz [ 13s 12p 11d 4f 3g | 8s 8p 7d 4f 3g ]
 
 Basis functions:
            1             2             3             4             5             6             7             8             9            10
    0    1Cu1s         1Cu2s         1Cu3s         1Cu4s         1Cu5s         1Cu6s         1Cu7s         1Cu8s         1Cu1pz        1Cu1py    
    1    1Cu1px        1Cu2pz        1Cu2py        1Cu2px        1Cu3pz        1Cu3py        1Cu3px        1Cu4pz        1Cu4py        1Cu4px    
    2    1Cu5pz        1Cu5py        1Cu5px        1Cu6pz        1Cu6py        1Cu6px        1Cu7pz        1Cu7py        1Cu7px        1Cu8pz    
    3    1Cu8py        1Cu8px        1Cu1d-2       1Cu1d-1       1Cu1d0        1Cu1d+1       1Cu1d+2       1Cu2d-2       1Cu2d-1       1Cu2d0    
    4    1Cu2d+1       1Cu2d+2       1Cu3d-2       1Cu3d-1       1Cu3d0        1Cu3d+1       1Cu3d+2       1Cu4d-2       1Cu4d-1       1Cu4d0    
    5    1Cu4d+1       1Cu4d+2       1Cu5d-2       1Cu5d-1       1Cu5d0        1Cu5d+1       1Cu5d+2       1Cu6d-2       1Cu6d-1       1Cu6d0    
    6    1Cu6d+1       1Cu6d+2       1Cu7d-2       1Cu7d-1       1Cu7d0        1Cu7d+1       1Cu7d+2       1Cu1f-3       1Cu1f-2       1Cu1f-1   
    7    1Cu1f0        1Cu1f+1       1Cu1f+2       1Cu1f+3       1Cu2f-3       1Cu2f-2       1Cu2f-1       1Cu2f0        1Cu2f+1       1Cu2f+2   
    8    1Cu2f+3       1Cu3f-3       1Cu3f-2       1Cu3f-1       1Cu3f0        1Cu3f+1       1Cu3f+2       1Cu3f+3       1Cu4f-3       1Cu4f-2   
    9    1Cu4f-1       1Cu4f0        1Cu4f+1       1Cu4f+2       1Cu4f+3       1Cu1g-4       1Cu1g-3       1Cu1g-2       1Cu1g-1       1Cu1g0    
   10    1Cu1g+1       1Cu1g+2       1Cu1g+3       1Cu1g+4       1Cu2g-4       1Cu2g-3       1Cu2g-2       1Cu2g-1       1Cu2g0        1Cu2g+1   
   11    1Cu2g+2       1Cu2g+3       1Cu2g+4       1Cu3g-4       1Cu3g-3       1Cu3g-2       1Cu3g-1       1Cu3g0        1Cu3g+1       1Cu3g+2   
   12    1Cu3g+3       1Cu3g+4       2Cu1s         2Cu2s         2Cu3s         2Cu4s         2Cu5s         2Cu6s         2Cu7s         2Cu8s     
   13    2Cu1pz        2Cu1py        2Cu1px        2Cu2pz        2Cu2py        2Cu2px        2Cu3pz        2Cu3py        2Cu3px        2Cu4pz    
   14    2Cu4py        2Cu4px        2Cu5pz        2Cu5py        2Cu5px        2Cu6pz        2Cu6py        2Cu6px        2Cu7pz        2Cu7py    
   15    2Cu7px        2Cu8pz        2Cu8py        2Cu8px        2Cu1d-2       2Cu1d-1       2Cu1d0        2Cu1d+1       2Cu1d+2       2Cu2d-2   
   16    2Cu2d-1       2Cu2d0        2Cu2d+1       2Cu2d+2       2Cu3d-2       2Cu3d-1       2Cu3d0        2Cu3d+1       2Cu3d+2       2Cu4d-2   
   17    2Cu4d-1       2Cu4d0        2Cu4d+1       2Cu4d+2       2Cu5d-2       2Cu5d-1       2Cu5d0        2Cu5d+1       2Cu5d+2       2Cu6d-2   
   18    2Cu6d-1       2Cu6d0        2Cu6d+1       2Cu6d+2       2Cu7d-2       2Cu7d-1       2Cu7d0        2Cu7d+1       2Cu7d+2       2Cu1f-3   
   19    2Cu1f-2       2Cu1f-1       2Cu1f0        2Cu1f+1       2Cu1f+2       2Cu1f+3       2Cu2f-3       2Cu2f-2       2Cu2f-1       2Cu2f0    
   20    2Cu2f+1       2Cu2f+2       2Cu2f+3       2Cu3f-3       2Cu3f-2       2Cu3f-1       2Cu3f0        2Cu3f+1       2Cu3f+2       2Cu3f+3   
   21    2Cu4f-3       2Cu4f-2       2Cu4f-1       2Cu4f0        2Cu4f+1       2Cu4f+2       2Cu4f+3       2Cu1g-4       2Cu1g-3       2Cu1g-2   
   22    2Cu1g-1       2Cu1g0        2Cu1g+1       2Cu1g+2       2Cu1g+3       2Cu1g+4       2Cu2g-4       2Cu2g-3       2Cu2g-2       2Cu2g-1   
   23    2Cu2g0        2Cu2g+1       2Cu2g+2       2Cu2g+3       2Cu2g+4       2Cu3g-4       2Cu3g-3       2Cu3g-2       2Cu3g-1       2Cu3g0    
   24    2Cu3g+1       2Cu3g+2       2Cu3g+3       2Cu3g+4       3Cu1s         3Cu2s         3Cu3s         3Cu4s         3Cu5s         3Cu6s     
   25    3Cu7s         3Cu8s         3Cu1pz        3Cu1py        3Cu1px        3Cu2pz        3Cu2py        3Cu2px        3Cu3pz        3Cu3py    
   26    3Cu3px        3Cu4pz        3Cu4py        3Cu4px        3Cu5pz        3Cu5py        3Cu5px        3Cu6pz        3Cu6py        3Cu6px    
   27    3Cu7pz        3Cu7py        3Cu7px        3Cu8pz        3Cu8py        3Cu8px        3Cu1d-2       3Cu1d-1       3Cu1d0        3Cu1d+1   
   28    3Cu1d+2       3Cu2d-2       3Cu2d-1       3Cu2d0        3Cu2d+1       3Cu2d+2       3Cu3d-2       3Cu3d-1       3Cu3d0        3Cu3d+1   
   29    3Cu3d+2       3Cu4d-2       3Cu4d-1       3Cu4d0        3Cu4d+1       3Cu4d+2       3Cu5d-2       3Cu5d-1       3Cu5d0        3Cu5d+1   
   30    3Cu5d+2       3Cu6d-2       3Cu6d-1       3Cu6d0        3Cu6d+1       3Cu6d+2       3Cu7d-2       3Cu7d-1       3Cu7d0        3Cu7d+1   
   31    3Cu7d+2       3Cu1f-3       3Cu1f-2       3Cu1f-1       3Cu1f0        3Cu1f+1       3Cu1f+2       3Cu1f+3       3Cu2f-3       3Cu2f-2   
   32    3Cu2f-1       3Cu2f0        3Cu2f+1       3Cu2f+2       3Cu2f+3       3Cu3f-3       3Cu3f-2       3Cu3f-1       3Cu3f0        3Cu3f+1   
   33    3Cu3f+2       3Cu3f+3       3Cu4f-3       3Cu4f-2       3Cu4f-1       3Cu4f0        3Cu4f+1       3Cu4f+2       3Cu4f+3       3Cu1g-4   
   34    3Cu1g-3       3Cu1g-2       3Cu1g-1       3Cu1g0        3Cu1g+1       3Cu1g+2       3Cu1g+3       3Cu1g+4       3Cu2g-4       3Cu2g-3   
   35    3Cu2g-2       3Cu2g-1       3Cu2g0        3Cu2g+1       3Cu2g+2       3Cu2g+3       3Cu2g+4       3Cu3g-4       3Cu3g-3       3Cu3g-2   
   36    3Cu3g-1       3Cu3g0        3Cu3g+1       3Cu3g+2       3Cu3g+3       3Cu3g+4       4Cu1s         4Cu2s         4Cu3s         4Cu4s     
   37    4Cu5s         4Cu6s         4Cu7s         4Cu8s         4Cu1pz        4Cu1py        4Cu1px        4Cu2pz        4Cu2py        4Cu2px    
   38    4Cu3pz        4Cu3py        4Cu3px        4Cu4pz        4Cu4py        4Cu4px        4Cu5pz        4Cu5py        4Cu5px        4Cu6pz    
   39    4Cu6py        4Cu6px        4Cu7pz        4Cu7py        4Cu7px        4Cu8pz        4Cu8py        4Cu8px        4Cu1d-2       4Cu1d-1   
   40    4Cu1d0        4Cu1d+1       4Cu1d+2       4Cu2d-2       4Cu2d-1       4Cu2d0        4Cu2d+1       4Cu2d+2       4Cu3d-2       4Cu3d-1   
   41    4Cu3d0        4Cu3d+1       4Cu3d+2       4Cu4d-2       4Cu4d-1       4Cu4d0        4Cu4d+1       4Cu4d+2       4Cu5d-2       4Cu5d-1   
   42    4Cu5d0        4Cu5d+1       4Cu5d+2       4Cu6d-2       4Cu6d-1       4Cu6d0        4Cu6d+1       4Cu6d+2       4Cu7d-2       4Cu7d-1   
   43    4Cu7d0        4Cu7d+1       4Cu7d+2       4Cu1f-3       4Cu1f-2       4Cu1f-1       4Cu1f0        4Cu1f+1       4Cu1f+2       4Cu1f+3   
   44    4Cu2f-3       4Cu2f-2       4Cu2f-1       4Cu2f0        4Cu2f+1       4Cu2f+2       4Cu2f+3       4Cu3f-3       4Cu3f-2       4Cu3f-1   
   45    4Cu3f0        4Cu3f+1       4Cu3f+2       4Cu3f+3       4Cu4f-3       4Cu4f-2       4Cu4f-1       4Cu4f0        4Cu4f+1       4Cu4f+2   
   46    4Cu4f+3       4Cu1g-4       4Cu1g-3       4Cu1g-2       4Cu1g-1       4Cu1g0        4Cu1g+1       4Cu1g+2       4Cu1g+3       4Cu1g+4   
   47    4Cu2g-4       4Cu2g-3       4Cu2g-2       4Cu2g-1       4Cu2g0        4Cu2g+1       4Cu2g+2       4Cu2g+3       4Cu2g+4       4Cu3g-4   
   48    4Cu3g-3       4Cu3g-2       4Cu3g-1       4Cu3g0        4Cu3g+1       4Cu3g+2       4Cu3g+3       4Cu3g+4   
 
 Maximum number of basis functions per shell:   35
 Total number of basis functions:    488
 
 
 Fitting basis set for the SCF calculation:
 
   1  Cu def2-qzvpp-ri-jk [ 19s 14p 12d 10f 7g 3h 1i | 16s 13p 11d 9f 5g 3h 1i ]
   2  Cu def2-qzvpp-ri-jk [ 19s 14p 12d 10f 7g 3h 1i | 16s 13p 11d 9f 5g 3h 1i ]
   3  Cu def2-qzvpp-ri-jk [ 19s 14p 12d 10f 7g 3h 1i | 16s 13p 11d 9f 5g 3h 1i ]
   4  Cu def2-qzvpp-ri-jk [ 19s 14p 12d 10f 7g 3h 1i | 16s 13p 11d 9f 5g 3h 1i ]
 
 Basis functions:
            1             2             3             4             5             6             7             8             9            10
    0    1Cu1s         1Cu2s         1Cu3s         1Cu4s         1Cu5s         1Cu6s         1Cu7s         1Cu8s         1Cu9s         1Cu10s    
    1    1Cu11s        1Cu12s        1Cu13s        1Cu14s        1Cu15s        1Cu16s        1Cu1pz        1Cu1py        1Cu1px        1Cu2pz    
    2    1Cu2py        1Cu2px        1Cu3pz        1Cu3py        1Cu3px        1Cu4pz        1Cu4py        1Cu4px        1Cu5pz        1Cu5py    
    3    1Cu5px        1Cu6pz        1Cu6py        1Cu6px        1Cu7pz        1Cu7py        1Cu7px        1Cu8pz        1Cu8py        1Cu8px    
    4    1Cu9pz        1Cu9py        1Cu9px        1Cu10pz       1Cu10py       1Cu10px       1Cu11pz       1Cu11py       1Cu11px       1Cu12pz   
    5    1Cu12py       1Cu12px       1Cu13pz       1Cu13py       1Cu13px       1Cu1d-2       1Cu1d-1       1Cu1d0        1Cu1d+1       1Cu1d+2   
    6    1Cu2d-2       1Cu2d-1       1Cu2d0        1Cu2d+1       1Cu2d+2       1Cu3d-2       1Cu3d-1       1Cu3d0        1Cu3d+1       1Cu3d+2   
    7    1Cu4d-2       1Cu4d-1       1Cu4d0        1Cu4d+1       1Cu4d+2       1Cu5d-2       1Cu5d-1       1Cu5d0        1Cu5d+1       1Cu5d+2   
    8    1Cu6d-2       1Cu6d-1       1Cu6d0        1Cu6d+1       1Cu6d+2       1Cu7d-2       1Cu7d-1       1Cu7d0        1Cu7d+1       1Cu7d+2   
    9    1Cu8d-2       1Cu8d-1       1Cu8d0        1Cu8d+1       1Cu8d+2       1Cu9d-2       1Cu9d-1       1Cu9d0        1Cu9d+1       1Cu9d+2   
   10    1Cu10d-2      1Cu10d-1      1Cu10d0       1Cu10d+1      1Cu10d+2      1Cu11d-2      1Cu11d-1      1Cu11d0       1Cu11d+1      1Cu11d+2  
   11    1Cu1f-3       1Cu1f-2       1Cu1f-1       1Cu1f0        1Cu1f+1       1Cu1f+2       1Cu1f+3       1Cu2f-3       1Cu2f-2       1Cu2f-1   
   12    1Cu2f0        1Cu2f+1       1Cu2f+2       1Cu2f+3       1Cu3f-3       1Cu3f-2       1Cu3f-1       1Cu3f0        1Cu3f+1       1Cu3f+2   
   13    1Cu3f+3       1Cu4f-3       1Cu4f-2       1Cu4f-1       1Cu4f0        1Cu4f+1       1Cu4f+2       1Cu4f+3       1Cu5f-3       1Cu5f-2   
   14    1Cu5f-1       1Cu5f0        1Cu5f+1       1Cu5f+2       1Cu5f+3       1Cu6f-3       1Cu6f-2       1Cu6f-1       1Cu6f0        1Cu6f+1   
   15    1Cu6f+2       1Cu6f+3       1Cu7f-3       1Cu7f-2       1Cu7f-1       1Cu7f0        1Cu7f+1       1Cu7f+2       1Cu7f+3       1Cu8f-3   
   16    1Cu8f-2       1Cu8f-1       1Cu8f0        1Cu8f+1       1Cu8f+2       1Cu8f+3       1Cu9f-3       1Cu9f-2       1Cu9f-1       1Cu9f0    
   17    1Cu9f+1       1Cu9f+2       1Cu9f+3       1Cu1g-4       1Cu1g-3       1Cu1g-2       1Cu1g-1       1Cu1g0        1Cu1g+1       1Cu1g+2   
   18    1Cu1g+3       1Cu1g+4       1Cu2g-4       1Cu2g-3       1Cu2g-2       1Cu2g-1       1Cu2g0        1Cu2g+1       1Cu2g+2       1Cu2g+3   
   19    1Cu2g+4       1Cu3g-4       1Cu3g-3       1Cu3g-2       1Cu3g-1       1Cu3g0        1Cu3g+1       1Cu3g+2       1Cu3g+3       1Cu3g+4   
   20    1Cu4g-4       1Cu4g-3       1Cu4g-2       1Cu4g-1       1Cu4g0        1Cu4g+1       1Cu4g+2       1Cu4g+3       1Cu4g+4       1Cu5g-4   
   21    1Cu5g-3       1Cu5g-2       1Cu5g-1       1Cu5g0        1Cu5g+1       1Cu5g+2       1Cu5g+3       1Cu5g+4       1Cu1h-5       1Cu1h-4   
   22    1Cu1h-3       1Cu1h-2       1Cu1h-1       1Cu1h0        1Cu1h+1       1Cu1h+2       1Cu1h+3       1Cu1h+4       1Cu1h+5       1Cu2h-5   
   23    1Cu2h-4       1Cu2h-3       1Cu2h-2       1Cu2h-1       1Cu2h0        1Cu2h+1       1Cu2h+2       1Cu2h+3       1Cu2h+4       1Cu2h+5   
   24    1Cu3h-5       1Cu3h-4       1Cu3h-3       1Cu3h-2       1Cu3h-1       1Cu3h0        1Cu3h+1       1Cu3h+2       1Cu3h+3       1Cu3h+4   
   25    1Cu3h+5       1Cu1i-6       1Cu1i-5       1Cu1i-4       1Cu1i-3       1Cu1i-2       1Cu1i-1       1Cu1i0        1Cu1i+1       1Cu1i+2   
   26    1Cu1i+3       1Cu1i+4       1Cu1i+5       1Cu1i+6       2Cu1s         2Cu2s         2Cu3s         2Cu4s         2Cu5s         2Cu6s     
   27    2Cu7s         2Cu8s         2Cu9s         2Cu10s        2Cu11s        2Cu12s        2Cu13s        2Cu14s        2Cu15s        2Cu16s    
   28    2Cu1pz        2Cu1py        2Cu1px        2Cu2pz        2Cu2py        2Cu2px        2Cu3pz        2Cu3py        2Cu3px        2Cu4pz    
   29    2Cu4py        2Cu4px        2Cu5pz        2Cu5py        2Cu5px        2Cu6pz        2Cu6py        2Cu6px        2Cu7pz        2Cu7py    
   30    2Cu7px        2Cu8pz        2Cu8py        2Cu8px        2Cu9pz        2Cu9py        2Cu9px        2Cu10pz       2Cu10py       2Cu10px   
   31    2Cu11pz       2Cu11py       2Cu11px       2Cu12pz       2Cu12py       2Cu12px       2Cu13pz       2Cu13py       2Cu13px       2Cu1d-2   
   32    2Cu1d-1       2Cu1d0        2Cu1d+1       2Cu1d+2       2Cu2d-2       2Cu2d-1       2Cu2d0        2Cu2d+1       2Cu2d+2       2Cu3d-2   
   33    2Cu3d-1       2Cu3d0        2Cu3d+1       2Cu3d+2       2Cu4d-2       2Cu4d-1       2Cu4d0        2Cu4d+1       2Cu4d+2       2Cu5d-2   
   34    2Cu5d-1       2Cu5d0        2Cu5d+1       2Cu5d+2       2Cu6d-2       2Cu6d-1       2Cu6d0        2Cu6d+1       2Cu6d+2       2Cu7d-2   
   35    2Cu7d-1       2Cu7d0        2Cu7d+1       2Cu7d+2       2Cu8d-2       2Cu8d-1       2Cu8d0        2Cu8d+1       2Cu8d+2       2Cu9d-2   
   36    2Cu9d-1       2Cu9d0        2Cu9d+1       2Cu9d+2       2Cu10d-2      2Cu10d-1      2Cu10d0       2Cu10d+1      2Cu10d+2      2Cu11d-2  
   37    2Cu11d-1      2Cu11d0       2Cu11d+1      2Cu11d+2      2Cu1f-3       2Cu1f-2       2Cu1f-1       2Cu1f0        2Cu1f+1       2Cu1f+2   
   38    2Cu1f+3       2Cu2f-3       2Cu2f-2       2Cu2f-1       2Cu2f0        2Cu2f+1       2Cu2f+2       2Cu2f+3       2Cu3f-3       2Cu3f-2   
   39    2Cu3f-1       2Cu3f0        2Cu3f+1       2Cu3f+2       2Cu3f+3       2Cu4f-3       2Cu4f-2       2Cu4f-1       2Cu4f0        2Cu4f+1   
   40    2Cu4f+2       2Cu4f+3       2Cu5f-3       2Cu5f-2       2Cu5f-1       2Cu5f0        2Cu5f+1       2Cu5f+2       2Cu5f+3       2Cu6f-3   
   41    2Cu6f-2       2Cu6f-1       2Cu6f0        2Cu6f+1       2Cu6f+2       2Cu6f+3       2Cu7f-3       2Cu7f-2       2Cu7f-1       2Cu7f0    
   42    2Cu7f+1       2Cu7f+2       2Cu7f+3       2Cu8f-3       2Cu8f-2       2Cu8f-1       2Cu8f0        2Cu8f+1       2Cu8f+2       2Cu8f+3   
   43    2Cu9f-3       2Cu9f-2       2Cu9f-1       2Cu9f0        2Cu9f+1       2Cu9f+2       2Cu9f+3       2Cu1g-4       2Cu1g-3       2Cu1g-2   
   44    2Cu1g-1       2Cu1g0        2Cu1g+1       2Cu1g+2       2Cu1g+3       2Cu1g+4       2Cu2g-4       2Cu2g-3       2Cu2g-2       2Cu2g-1   
   45    2Cu2g0        2Cu2g+1       2Cu2g+2       2Cu2g+3       2Cu2g+4       2Cu3g-4       2Cu3g-3       2Cu3g-2       2Cu3g-1       2Cu3g0    
   46    2Cu3g+1       2Cu3g+2       2Cu3g+3       2Cu3g+4       2Cu4g-4       2Cu4g-3       2Cu4g-2       2Cu4g-1       2Cu4g0        2Cu4g+1   
   47    2Cu4g+2       2Cu4g+3       2Cu4g+4       2Cu5g-4       2Cu5g-3       2Cu5g-2       2Cu5g-1       2Cu5g0        2Cu5g+1       2Cu5g+2   
   48    2Cu5g+3       2Cu5g+4       2Cu1h-5       2Cu1h-4       2Cu1h-3       2Cu1h-2       2Cu1h-1       2Cu1h0        2Cu1h+1       2Cu1h+2   
   49    2Cu1h+3       2Cu1h+4       2Cu1h+5       2Cu2h-5       2Cu2h-4       2Cu2h-3       2Cu2h-2       2Cu2h-1       2Cu2h0        2Cu2h+1   
   50    2Cu2h+2       2Cu2h+3       2Cu2h+4       2Cu2h+5       2Cu3h-5       2Cu3h-4       2Cu3h-3       2Cu3h-2       2Cu3h-1       2Cu3h0    
   51    2Cu3h+1       2Cu3h+2       2Cu3h+3       2Cu3h+4       2Cu3h+5       2Cu1i-6       2Cu1i-5       2Cu1i-4       2Cu1i-3       2Cu1i-2   
   52    2Cu1i-1       2Cu1i0        2Cu1i+1       2Cu1i+2       2Cu1i+3       2Cu1i+4       2Cu1i+5       2Cu1i+6       3Cu1s         3Cu2s     
   53    3Cu3s         3Cu4s         3Cu5s         3Cu6s         3Cu7s         3Cu8s         3Cu9s         3Cu10s        3Cu11s        3Cu12s    
   54    3Cu13s        3Cu14s        3Cu15s        3Cu16s        3Cu1pz        3Cu1py        3Cu1px        3Cu2pz        3Cu2py        3Cu2px    
   55    3Cu3pz        3Cu3py        3Cu3px        3Cu4pz        3Cu4py        3Cu4px        3Cu5pz        3Cu5py        3Cu5px        3Cu6pz    
   56    3Cu6py        3Cu6px        3Cu7pz        3Cu7py        3Cu7px        3Cu8pz        3Cu8py        3Cu8px        3Cu9pz        3Cu9py    
   57    3Cu9px        3Cu10pz       3Cu10py       3Cu10px       3Cu11pz       3Cu11py       3Cu11px       3Cu12pz       3Cu12py       3Cu12px   
   58    3Cu13pz       3Cu13py       3Cu13px       3Cu1d-2       3Cu1d-1       3Cu1d0        3Cu1d+1       3Cu1d+2       3Cu2d-2       3Cu2d-1   
   59    3Cu2d0        3Cu2d+1       3Cu2d+2       3Cu3d-2       3Cu3d-1       3Cu3d0        3Cu3d+1       3Cu3d+2       3Cu4d-2       3Cu4d-1   
   60    3Cu4d0        3Cu4d+1       3Cu4d+2       3Cu5d-2       3Cu5d-1       3Cu5d0        3Cu5d+1       3Cu5d+2       3Cu6d-2       3Cu6d-1   
   61    3Cu6d0        3Cu6d+1       3Cu6d+2       3Cu7d-2       3Cu7d-1       3Cu7d0        3Cu7d+1       3Cu7d+2       3Cu8d-2       3Cu8d-1   
   62    3Cu8d0        3Cu8d+1       3Cu8d+2       3Cu9d-2       3Cu9d-1       3Cu9d0        3Cu9d+1       3Cu9d+2       3Cu10d-2      3Cu10d-1  
   63    3Cu10d0       3Cu10d+1      3Cu10d+2      3Cu11d-2      3Cu11d-1      3Cu11d0       3Cu11d+1      3Cu11d+2      3Cu1f-3       3Cu1f-2   
   64    3Cu1f-1       3Cu1f0        3Cu1f+1       3Cu1f+2       3Cu1f+3       3Cu2f-3       3Cu2f-2       3Cu2f-1       3Cu2f0        3Cu2f+1   
   65    3Cu2f+2       3Cu2f+3       3Cu3f-3       3Cu3f-2       3Cu3f-1       3Cu3f0        3Cu3f+1       3Cu3f+2       3Cu3f+3       3Cu4f-3   
   66    3Cu4f-2       3Cu4f-1       3Cu4f0        3Cu4f+1       3Cu4f+2       3Cu4f+3       3Cu5f-3       3Cu5f-2       3Cu5f-1       3Cu5f0    
   67    3Cu5f+1       3Cu5f+2       3Cu5f+3       3Cu6f-3       3Cu6f-2       3Cu6f-1       3Cu6f0        3Cu6f+1       3Cu6f+2       3Cu6f+3   
   68    3Cu7f-3       3Cu7f-2       3Cu7f-1       3Cu7f0        3Cu7f+1       3Cu7f+2       3Cu7f+3       3Cu8f-3       3Cu8f-2       3Cu8f-1   
   69    3Cu8f0        3Cu8f+1       3Cu8f+2       3Cu8f+3       3Cu9f-3       3Cu9f-2       3Cu9f-1       3Cu9f0        3Cu9f+1       3Cu9f+2   
   70    3Cu9f+3       3Cu1g-4       3Cu1g-3       3Cu1g-2       3Cu1g-1       3Cu1g0        3Cu1g+1       3Cu1g+2       3Cu1g+3       3Cu1g+4   
   71    3Cu2g-4       3Cu2g-3       3Cu2g-2       3Cu2g-1       3Cu2g0        3Cu2g+1       3Cu2g+2       3Cu2g+3       3Cu2g+4       3Cu3g-4   
   72    3Cu3g-3       3Cu3g-2       3Cu3g-1       3Cu3g0        3Cu3g+1       3Cu3g+2       3Cu3g+3       3Cu3g+4       3Cu4g-4       3Cu4g-3   
   73    3Cu4g-2       3Cu4g-1       3Cu4g0        3Cu4g+1       3Cu4g+2       3Cu4g+3       3Cu4g+4       3Cu5g-4       3Cu5g-3       3Cu5g-2   
   74    3Cu5g-1       3Cu5g0        3Cu5g+1       3Cu5g+2       3Cu5g+3       3Cu5g+4       3Cu1h-5       3Cu1h-4       3Cu1h-3       3Cu1h-2   
   75    3Cu1h-1       3Cu1h0        3Cu1h+1       3Cu1h+2       3Cu1h+3       3Cu1h+4       3Cu1h+5       3Cu2h-5       3Cu2h-4       3Cu2h-3   
   76    3Cu2h-2       3Cu2h-1       3Cu2h0        3Cu2h+1       3Cu2h+2       3Cu2h+3       3Cu2h+4       3Cu2h+5       3Cu3h-5       3Cu3h-4   
   77    3Cu3h-3       3Cu3h-2       3Cu3h-1       3Cu3h0        3Cu3h+1       3Cu3h+2       3Cu3h+3       3Cu3h+4       3Cu3h+5       3Cu1i-6   
   78    3Cu1i-5       3Cu1i-4       3Cu1i-3       3Cu1i-2       3Cu1i-1       3Cu1i0        3Cu1i+1       3Cu1i+2       3Cu1i+3       3Cu1i+4   
   79    3Cu1i+5       3Cu1i+6       4Cu1s         4Cu2s         4Cu3s         4Cu4s         4Cu5s         4Cu6s         4Cu7s         4Cu8s     
   80    4Cu9s         4Cu10s        4Cu11s        4Cu12s        4Cu13s        4Cu14s        4Cu15s        4Cu16s        4Cu1pz        4Cu1py    
   81    4Cu1px        4Cu2pz        4Cu2py        4Cu2px        4Cu3pz        4Cu3py        4Cu3px        4Cu4pz        4Cu4py        4Cu4px    
   82    4Cu5pz        4Cu5py        4Cu5px        4Cu6pz        4Cu6py        4Cu6px        4Cu7pz        4Cu7py        4Cu7px        4Cu8pz    
   83    4Cu8py        4Cu8px        4Cu9pz        4Cu9py        4Cu9px        4Cu10pz       4Cu10py       4Cu10px       4Cu11pz       4Cu11py   
   84    4Cu11px       4Cu12pz       4Cu12py       4Cu12px       4Cu13pz       4Cu13py       4Cu13px       4Cu1d-2       4Cu1d-1       4Cu1d0    
   85    4Cu1d+1       4Cu1d+2       4Cu2d-2       4Cu2d-1       4Cu2d0        4Cu2d+1       4Cu2d+2       4Cu3d-2       4Cu3d-1       4Cu3d0    
   86    4Cu3d+1       4Cu3d+2       4Cu4d-2       4Cu4d-1       4Cu4d0        4Cu4d+1       4Cu4d+2       4Cu5d-2       4Cu5d-1       4Cu5d0    
   87    4Cu5d+1       4Cu5d+2       4Cu6d-2       4Cu6d-1       4Cu6d0        4Cu6d+1       4Cu6d+2       4Cu7d-2       4Cu7d-1       4Cu7d0    
   88    4Cu7d+1       4Cu7d+2       4Cu8d-2       4Cu8d-1       4Cu8d0        4Cu8d+1       4Cu8d+2       4Cu9d-2       4Cu9d-1       4Cu9d0    
   89    4Cu9d+1       4Cu9d+2       4Cu10d-2      4Cu10d-1      4Cu10d0       4Cu10d+1      4Cu10d+2      4Cu11d-2      4Cu11d-1      4Cu11d0   
   90    4Cu11d+1      4Cu11d+2      4Cu1f-3       4Cu1f-2       4Cu1f-1       4Cu1f0        4Cu1f+1       4Cu1f+2       4Cu1f+3       4Cu2f-3   
   91    4Cu2f-2       4Cu2f-1       4Cu2f0        4Cu2f+1       4Cu2f+2       4Cu2f+3       4Cu3f-3       4Cu3f-2       4Cu3f-1       4Cu3f0    
   92    4Cu3f+1       4Cu3f+2       4Cu3f+3       4Cu4f-3       4Cu4f-2       4Cu4f-1       4Cu4f0        4Cu4f+1       4Cu4f+2       4Cu4f+3   
   93    4Cu5f-3       4Cu5f-2       4Cu5f-1       4Cu5f0        4Cu5f+1       4Cu5f+2       4Cu5f+3       4Cu6f-3       4Cu6f-2       4Cu6f-1   
   94    4Cu6f0        4Cu6f+1       4Cu6f+2       4Cu6f+3       4Cu7f-3       4Cu7f-2       4Cu7f-1       4Cu7f0        4Cu7f+1       4Cu7f+2   
   95    4Cu7f+3       4Cu8f-3       4Cu8f-2       4Cu8f-1       4Cu8f0        4Cu8f+1       4Cu8f+2       4Cu8f+3       4Cu9f-3       4Cu9f-2   
   96    4Cu9f-1       4Cu9f0        4Cu9f+1       4Cu9f+2       4Cu9f+3       4Cu1g-4       4Cu1g-3       4Cu1g-2       4Cu1g-1       4Cu1g0    
   97    4Cu1g+1       4Cu1g+2       4Cu1g+3       4Cu1g+4       4Cu2g-4       4Cu2g-3       4Cu2g-2       4Cu2g-1       4Cu2g0        4Cu2g+1   
   98    4Cu2g+2       4Cu2g+3       4Cu2g+4       4Cu3g-4       4Cu3g-3       4Cu3g-2       4Cu3g-1       4Cu3g0        4Cu3g+1       4Cu3g+2   
   99    4Cu3g+3       4Cu3g+4       4Cu4g-4       4Cu4g-3       4Cu4g-2       4Cu4g-1       4Cu4g0        4Cu4g+1       4Cu4g+2       4Cu4g+3   
  100    4Cu4g+4       4Cu5g-4       4Cu5g-3       4Cu5g-2       4Cu5g-1       4Cu5g0        4Cu5g+1       4Cu5g+2       4Cu5g+3       4Cu5g+4   
  101    4Cu1h-5       4Cu1h-4       4Cu1h-3       4Cu1h-2       4Cu1h-1       4Cu1h0        4Cu1h+1       4Cu1h+2       4Cu1h+3       4Cu1h+4   
  102    4Cu1h+5       4Cu2h-5       4Cu2h-4       4Cu2h-3       4Cu2h-2       4Cu2h-1       4Cu2h0        4Cu2h+1       4Cu2h+2       4Cu2h+3   
  103    4Cu2h+4       4Cu2h+5       4Cu3h-5       4Cu3h-4       4Cu3h-3       4Cu3h-2       4Cu3h-1       4Cu3h0        4Cu3h+1       4Cu3h+2   
  104    4Cu3h+3       4Cu3h+4       4Cu3h+5       4Cu1i-6       4Cu1i-5       4Cu1i-4       4Cu1i-3       4Cu1i-2       4Cu1i-1       4Cu1i0    
  105    4Cu1i+1       4Cu1i+2       4Cu1i+3       4Cu1i+4       4Cu1i+5       4Cu1i+6   
 
 Maximum number of basis functions per shell:   63
 Total number of basis functions:   1056
 
 
 Fitting basis set for the correlation calculation:
 
   1  Cu bse_acvtz_mp2fit [ 13s 13p 12d 10f 8g 5h 4i | 13s 13p 12d 10f 8g 5h 4i ]
   2  Cu bse_acvtz_mp2fit [ 13s 13p 12d 10f 8g 5h 4i | 13s 13p 12d 10f 8g 5h 4i ]
   3  Cu bse_acvtz_mp2fit [ 13s 13p 12d 10f 8g 5h 4i | 13s 13p 12d 10f 8g 5h 4i ]
   4  Cu bse_acvtz_mp2fit [ 13s 13p 12d 10f 8g 5h 4i | 13s 13p 12d 10f 8g 5h 4i ]
 
 Basis functions:
            1             2             3             4             5             6             7             8             9            10
    0    1Cu1s         1Cu2s         1Cu3s         1Cu4s         1Cu5s         1Cu6s         1Cu7s         1Cu8s         1Cu9s         1Cu10s    
    1    1Cu11s        1Cu12s        1Cu13s        1Cu1pz        1Cu1py        1Cu1px        1Cu2pz        1Cu2py        1Cu2px        1Cu3pz    
    2    1Cu3py        1Cu3px        1Cu4pz        1Cu4py        1Cu4px        1Cu5pz        1Cu5py        1Cu5px        1Cu6pz        1Cu6py    
    3    1Cu6px        1Cu7pz        1Cu7py        1Cu7px        1Cu8pz        1Cu8py        1Cu8px        1Cu9pz        1Cu9py        1Cu9px    
    4    1Cu10pz       1Cu10py       1Cu10px       1Cu11pz       1Cu11py       1Cu11px       1Cu12pz       1Cu12py       1Cu12px       1Cu13pz   
    5    1Cu13py       1Cu13px       1Cu1d-2       1Cu1d-1       1Cu1d0        1Cu1d+1       1Cu1d+2       1Cu2d-2       1Cu2d-1       1Cu2d0    
    6    1Cu2d+1       1Cu2d+2       1Cu3d-2       1Cu3d-1       1Cu3d0        1Cu3d+1       1Cu3d+2       1Cu4d-2       1Cu4d-1       1Cu4d0    
    7    1Cu4d+1       1Cu4d+2       1Cu5d-2       1Cu5d-1       1Cu5d0        1Cu5d+1       1Cu5d+2       1Cu6d-2       1Cu6d-1       1Cu6d0    
    8    1Cu6d+1       1Cu6d+2       1Cu7d-2       1Cu7d-1       1Cu7d0        1Cu7d+1       1Cu7d+2       1Cu8d-2       1Cu8d-1       1Cu8d0    
    9    1Cu8d+1       1Cu8d+2       1Cu9d-2       1Cu9d-1       1Cu9d0        1Cu9d+1       1Cu9d+2       1Cu10d-2      1Cu10d-1      1Cu10d0   
   10    1Cu10d+1      1Cu10d+2      1Cu11d-2      1Cu11d-1      1Cu11d0       1Cu11d+1      1Cu11d+2      1Cu12d-2      1Cu12d-1      1Cu12d0   
   11    1Cu12d+1      1Cu12d+2      1Cu1f-3       1Cu1f-2       1Cu1f-1       1Cu1f0        1Cu1f+1       1Cu1f+2       1Cu1f+3       1Cu2f-3   
   12    1Cu2f-2       1Cu2f-1       1Cu2f0        1Cu2f+1       1Cu2f+2       1Cu2f+3       1Cu3f-3       1Cu3f-2       1Cu3f-1       1Cu3f0    
   13    1Cu3f+1       1Cu3f+2       1Cu3f+3       1Cu4f-3       1Cu4f-2       1Cu4f-1       1Cu4f0        1Cu4f+1       1Cu4f+2       1Cu4f+3   
   14    1Cu5f-3       1Cu5f-2       1Cu5f-1       1Cu5f0        1Cu5f+1       1Cu5f+2       1Cu5f+3       1Cu6f-3       1Cu6f-2       1Cu6f-1   
   15    1Cu6f0        1Cu6f+1       1Cu6f+2       1Cu6f+3       1Cu7f-3       1Cu7f-2       1Cu7f-1       1Cu7f0        1Cu7f+1       1Cu7f+2   
   16    1Cu7f+3       1Cu8f-3       1Cu8f-2       1Cu8f-1       1Cu8f0        1Cu8f+1       1Cu8f+2       1Cu8f+3       1Cu9f-3       1Cu9f-2   
   17    1Cu9f-1       1Cu9f0        1Cu9f+1       1Cu9f+2       1Cu9f+3       1Cu10f-3      1Cu10f-2      1Cu10f-1      1Cu10f0       1Cu10f+1  
   18    1Cu10f+2      1Cu10f+3      1Cu1g-4       1Cu1g-3       1Cu1g-2       1Cu1g-1       1Cu1g0        1Cu1g+1       1Cu1g+2       1Cu1g+3   
   19    1Cu1g+4       1Cu2g-4       1Cu2g-3       1Cu2g-2       1Cu2g-1       1Cu2g0        1Cu2g+1       1Cu2g+2       1Cu2g+3       1Cu2g+4   
   20    1Cu3g-4       1Cu3g-3       1Cu3g-2       1Cu3g-1       1Cu3g0        1Cu3g+1       1Cu3g+2       1Cu3g+3       1Cu3g+4       1Cu4g-4   
   21    1Cu4g-3       1Cu4g-2       1Cu4g-1       1Cu4g0        1Cu4g+1       1Cu4g+2       1Cu4g+3       1Cu4g+4       1Cu5g-4       1Cu5g-3   
   22    1Cu5g-2       1Cu5g-1       1Cu5g0        1Cu5g+1       1Cu5g+2       1Cu5g+3       1Cu5g+4       1Cu6g-4       1Cu6g-3       1Cu6g-2   
   23    1Cu6g-1       1Cu6g0        1Cu6g+1       1Cu6g+2       1Cu6g+3       1Cu6g+4       1Cu7g-4       1Cu7g-3       1Cu7g-2       1Cu7g-1   
   24    1Cu7g0        1Cu7g+1       1Cu7g+2       1Cu7g+3       1Cu7g+4       1Cu8g-4       1Cu8g-3       1Cu8g-2       1Cu8g-1       1Cu8g0    
   25    1Cu8g+1       1Cu8g+2       1Cu8g+3       1Cu8g+4       1Cu1h-5       1Cu1h-4       1Cu1h-3       1Cu1h-2       1Cu1h-1       1Cu1h0    
   26    1Cu1h+1       1Cu1h+2       1Cu1h+3       1Cu1h+4       1Cu1h+5       1Cu2h-5       1Cu2h-4       1Cu2h-3       1Cu2h-2       1Cu2h-1   
   27    1Cu2h0        1Cu2h+1       1Cu2h+2       1Cu2h+3       1Cu2h+4       1Cu2h+5       1Cu3h-5       1Cu3h-4       1Cu3h-3       1Cu3h-2   
   28    1Cu3h-1       1Cu3h0        1Cu3h+1       1Cu3h+2       1Cu3h+3       1Cu3h+4       1Cu3h+5       1Cu4h-5       1Cu4h-4       1Cu4h-3   
   29    1Cu4h-2       1Cu4h-1       1Cu4h0        1Cu4h+1       1Cu4h+2       1Cu4h+3       1Cu4h+4       1Cu4h+5       1Cu5h-5       1Cu5h-4   
   30    1Cu5h-3       1Cu5h-2       1Cu5h-1       1Cu5h0        1Cu5h+1       1Cu5h+2       1Cu5h+3       1Cu5h+4       1Cu5h+5       1Cu1i-6   
   31    1Cu1i-5       1Cu1i-4       1Cu1i-3       1Cu1i-2       1Cu1i-1       1Cu1i0        1Cu1i+1       1Cu1i+2       1Cu1i+3       1Cu1i+4   
   32    1Cu1i+5       1Cu1i+6       1Cu2i-6       1Cu2i-5       1Cu2i-4       1Cu2i-3       1Cu2i-2       1Cu2i-1       1Cu2i0        1Cu2i+1   
   33    1Cu2i+2       1Cu2i+3       1Cu2i+4       1Cu2i+5       1Cu2i+6       1Cu3i-6       1Cu3i-5       1Cu3i-4       1Cu3i-3       1Cu3i-2   
   34    1Cu3i-1       1Cu3i0        1Cu3i+1       1Cu3i+2       1Cu3i+3       1Cu3i+4       1Cu3i+5       1Cu3i+6       1Cu4i-6       1Cu4i-5   
   35    1Cu4i-4       1Cu4i-3       1Cu4i-2       1Cu4i-1       1Cu4i0        1Cu4i+1       1Cu4i+2       1Cu4i+3       1Cu4i+4       1Cu4i+5   
   36    1Cu4i+6       2Cu1s         2Cu2s         2Cu3s         2Cu4s         2Cu5s         2Cu6s         2Cu7s         2Cu8s         2Cu9s     
   37    2Cu10s        2Cu11s        2Cu12s        2Cu13s        2Cu1pz        2Cu1py        2Cu1px        2Cu2pz        2Cu2py        2Cu2px    
   38    2Cu3pz        2Cu3py        2Cu3px        2Cu4pz        2Cu4py        2Cu4px        2Cu5pz        2Cu5py        2Cu5px        2Cu6pz    
   39    2Cu6py        2Cu6px        2Cu7pz        2Cu7py        2Cu7px        2Cu8pz        2Cu8py        2Cu8px        2Cu9pz        2Cu9py    
   40    2Cu9px        2Cu10pz       2Cu10py       2Cu10px       2Cu11pz       2Cu11py       2Cu11px       2Cu12pz       2Cu12py       2Cu12px   
   41    2Cu13pz       2Cu13py       2Cu13px       2Cu1d-2       2Cu1d-1       2Cu1d0        2Cu1d+1       2Cu1d+2       2Cu2d-2       2Cu2d-1   
   42    2Cu2d0        2Cu2d+1       2Cu2d+2       2Cu3d-2       2Cu3d-1       2Cu3d0        2Cu3d+1       2Cu3d+2       2Cu4d-2       2Cu4d-1   
   43    2Cu4d0        2Cu4d+1       2Cu4d+2       2Cu5d-2       2Cu5d-1       2Cu5d0        2Cu5d+1       2Cu5d+2       2Cu6d-2       2Cu6d-1   
   44    2Cu6d0        2Cu6d+1       2Cu6d+2       2Cu7d-2       2Cu7d-1       2Cu7d0        2Cu7d+1       2Cu7d+2       2Cu8d-2       2Cu8d-1   
   45    2Cu8d0        2Cu8d+1       2Cu8d+2       2Cu9d-2       2Cu9d-1       2Cu9d0        2Cu9d+1       2Cu9d+2       2Cu10d-2      2Cu10d-1  
   46    2Cu10d0       2Cu10d+1      2Cu10d+2      2Cu11d-2      2Cu11d-1      2Cu11d0       2Cu11d+1      2Cu11d+2      2Cu12d-2      2Cu12d-1  
   47    2Cu12d0       2Cu12d+1      2Cu12d+2      2Cu1f-3       2Cu1f-2       2Cu1f-1       2Cu1f0        2Cu1f+1       2Cu1f+2       2Cu1f+3   
   48    2Cu2f-3       2Cu2f-2       2Cu2f-1       2Cu2f0        2Cu2f+1       2Cu2f+2       2Cu2f+3       2Cu3f-3       2Cu3f-2       2Cu3f-1   
   49    2Cu3f0        2Cu3f+1       2Cu3f+2       2Cu3f+3       2Cu4f-3       2Cu4f-2       2Cu4f-1       2Cu4f0        2Cu4f+1       2Cu4f+2   
   50    2Cu4f+3       2Cu5f-3       2Cu5f-2       2Cu5f-1       2Cu5f0        2Cu5f+1       2Cu5f+2       2Cu5f+3       2Cu6f-3       2Cu6f-2   
   51    2Cu6f-1       2Cu6f0        2Cu6f+1       2Cu6f+2       2Cu6f+3       2Cu7f-3       2Cu7f-2       2Cu7f-1       2Cu7f0        2Cu7f+1   
   52    2Cu7f+2       2Cu7f+3       2Cu8f-3       2Cu8f-2       2Cu8f-1       2Cu8f0        2Cu8f+1       2Cu8f+2       2Cu8f+3       2Cu9f-3   
   53    2Cu9f-2       2Cu9f-1       2Cu9f0        2Cu9f+1       2Cu9f+2       2Cu9f+3       2Cu10f-3      2Cu10f-2      2Cu10f-1      2Cu10f0   
   54    2Cu10f+1      2Cu10f+2      2Cu10f+3      2Cu1g-4       2Cu1g-3       2Cu1g-2       2Cu1g-1       2Cu1g0        2Cu1g+1       2Cu1g+2   
   55    2Cu1g+3       2Cu1g+4       2Cu2g-4       2Cu2g-3       2Cu2g-2       2Cu2g-1       2Cu2g0        2Cu2g+1       2Cu2g+2       2Cu2g+3   
   56    2Cu2g+4       2Cu3g-4       2Cu3g-3       2Cu3g-2       2Cu3g-1       2Cu3g0        2Cu3g+1       2Cu3g+2       2Cu3g+3       2Cu3g+4   
   57    2Cu4g-4       2Cu4g-3       2Cu4g-2       2Cu4g-1       2Cu4g0        2Cu4g+1       2Cu4g+2       2Cu4g+3       2Cu4g+4       2Cu5g-4   
   58    2Cu5g-3       2Cu5g-2       2Cu5g-1       2Cu5g0        2Cu5g+1       2Cu5g+2       2Cu5g+3       2Cu5g+4       2Cu6g-4       2Cu6g-3   
   59    2Cu6g-2       2Cu6g-1       2Cu6g0        2Cu6g+1       2Cu6g+2       2Cu6g+3       2Cu6g+4       2Cu7g-4       2Cu7g-3       2Cu7g-2   
   60    2Cu7g-1       2Cu7g0        2Cu7g+1       2Cu7g+2       2Cu7g+3       2Cu7g+4       2Cu8g-4       2Cu8g-3       2Cu8g-2       2Cu8g-1   
   61    2Cu8g0        2Cu8g+1       2Cu8g+2       2Cu8g+3       2Cu8g+4       2Cu1h-5       2Cu1h-4       2Cu1h-3       2Cu1h-2       2Cu1h-1   
   62    2Cu1h0        2Cu1h+1       2Cu1h+2       2Cu1h+3       2Cu1h+4       2Cu1h+5       2Cu2h-5       2Cu2h-4       2Cu2h-3       2Cu2h-2   
   63    2Cu2h-1       2Cu2h0        2Cu2h+1       2Cu2h+2       2Cu2h+3       2Cu2h+4       2Cu2h+5       2Cu3h-5       2Cu3h-4       2Cu3h-3   
   64    2Cu3h-2       2Cu3h-1       2Cu3h0        2Cu3h+1       2Cu3h+2       2Cu3h+3       2Cu3h+4       2Cu3h+5       2Cu4h-5       2Cu4h-4   
   65    2Cu4h-3       2Cu4h-2       2Cu4h-1       2Cu4h0        2Cu4h+1       2Cu4h+2       2Cu4h+3       2Cu4h+4       2Cu4h+5       2Cu5h-5   
   66    2Cu5h-4       2Cu5h-3       2Cu5h-2       2Cu5h-1       2Cu5h0        2Cu5h+1       2Cu5h+2       2Cu5h+3       2Cu5h+4       2Cu5h+5   
   67    2Cu1i-6       2Cu1i-5       2Cu1i-4       2Cu1i-3       2Cu1i-2       2Cu1i-1       2Cu1i0        2Cu1i+1       2Cu1i+2       2Cu1i+3   
   68    2Cu1i+4       2Cu1i+5       2Cu1i+6       2Cu2i-6       2Cu2i-5       2Cu2i-4       2Cu2i-3       2Cu2i-2       2Cu2i-1       2Cu2i0    
   69    2Cu2i+1       2Cu2i+2       2Cu2i+3       2Cu2i+4       2Cu2i+5       2Cu2i+6       2Cu3i-6       2Cu3i-5       2Cu3i-4       2Cu3i-3   
   70    2Cu3i-2       2Cu3i-1       2Cu3i0        2Cu3i+1       2Cu3i+2       2Cu3i+3       2Cu3i+4       2Cu3i+5       2Cu3i+6       2Cu4i-6   
   71    2Cu4i-5       2Cu4i-4       2Cu4i-3       2Cu4i-2       2Cu4i-1       2Cu4i0        2Cu4i+1       2Cu4i+2       2Cu4i+3       2Cu4i+4   
   72    2Cu4i+5       2Cu4i+6       3Cu1s         3Cu2s         3Cu3s         3Cu4s         3Cu5s         3Cu6s         3Cu7s         3Cu8s     
   73    3Cu9s         3Cu10s        3Cu11s        3Cu12s        3Cu13s        3Cu1pz        3Cu1py        3Cu1px        3Cu2pz        3Cu2py    
   74    3Cu2px        3Cu3pz        3Cu3py        3Cu3px        3Cu4pz        3Cu4py        3Cu4px        3Cu5pz        3Cu5py        3Cu5px    
   75    3Cu6pz        3Cu6py        3Cu6px        3Cu7pz        3Cu7py        3Cu7px        3Cu8pz        3Cu8py        3Cu8px        3Cu9pz    
   76    3Cu9py        3Cu9px        3Cu10pz       3Cu10py       3Cu10px       3Cu11pz       3Cu11py       3Cu11px       3Cu12pz       3Cu12py   
   77    3Cu12px       3Cu13pz       3Cu13py       3Cu13px       3Cu1d-2       3Cu1d-1       3Cu1d0        3Cu1d+1       3Cu1d+2       3Cu2d-2   
   78    3Cu2d-1       3Cu2d0        3Cu2d+1       3Cu2d+2       3Cu3d-2       3Cu3d-1       3Cu3d0        3Cu3d+1       3Cu3d+2       3Cu4d-2   
   79    3Cu4d-1       3Cu4d0        3Cu4d+1       3Cu4d+2       3Cu5d-2       3Cu5d-1       3Cu5d0        3Cu5d+1       3Cu5d+2       3Cu6d-2   
   80    3Cu6d-1       3Cu6d0        3Cu6d+1       3Cu6d+2       3Cu7d-2       3Cu7d-1       3Cu7d0        3Cu7d+1       3Cu7d+2       3Cu8d-2   
   81    3Cu8d-1       3Cu8d0        3Cu8d+1       3Cu8d+2       3Cu9d-2       3Cu9d-1       3Cu9d0        3Cu9d+1       3Cu9d+2       3Cu10d-2  
   82    3Cu10d-1      3Cu10d0       3Cu10d+1      3Cu10d+2      3Cu11d-2      3Cu11d-1      3Cu11d0       3Cu11d+1      3Cu11d+2      3Cu12d-2  
   83    3Cu12d-1      3Cu12d0       3Cu12d+1      3Cu12d+2      3Cu1f-3       3Cu1f-2       3Cu1f-1       3Cu1f0        3Cu1f+1       3Cu1f+2   
   84    3Cu1f+3       3Cu2f-3       3Cu2f-2       3Cu2f-1       3Cu2f0        3Cu2f+1       3Cu2f+2       3Cu2f+3       3Cu3f-3       3Cu3f-2   
   85    3Cu3f-1       3Cu3f0        3Cu3f+1       3Cu3f+2       3Cu3f+3       3Cu4f-3       3Cu4f-2       3Cu4f-1       3Cu4f0        3Cu4f+1   
   86    3Cu4f+2       3Cu4f+3       3Cu5f-3       3Cu5f-2       3Cu5f-1       3Cu5f0        3Cu5f+1       3Cu5f+2       3Cu5f+3       3Cu6f-3   
   87    3Cu6f-2       3Cu6f-1       3Cu6f0        3Cu6f+1       3Cu6f+2       3Cu6f+3       3Cu7f-3       3Cu7f-2       3Cu7f-1       3Cu7f0    
   88    3Cu7f+1       3Cu7f+2       3Cu7f+3       3Cu8f-3       3Cu8f-2       3Cu8f-1       3Cu8f0        3Cu8f+1       3Cu8f+2       3Cu8f+3   
   89    3Cu9f-3       3Cu9f-2       3Cu9f-1       3Cu9f0        3Cu9f+1       3Cu9f+2       3Cu9f+3       3Cu10f-3      3Cu10f-2      3Cu10f-1  
   90    3Cu10f0       3Cu10f+1      3Cu10f+2      3Cu10f+3      3Cu1g-4       3Cu1g-3       3Cu1g-2       3Cu1g-1       3Cu1g0        3Cu1g+1   
   91    3Cu1g+2       3Cu1g+3       3Cu1g+4       3Cu2g-4       3Cu2g-3       3Cu2g-2       3Cu2g-1       3Cu2g0        3Cu2g+1       3Cu2g+2   
   92    3Cu2g+3       3Cu2g+4       3Cu3g-4       3Cu3g-3       3Cu3g-2       3Cu3g-1       3Cu3g0        3Cu3g+1       3Cu3g+2       3Cu3g+3   
   93    3Cu3g+4       3Cu4g-4       3Cu4g-3       3Cu4g-2       3Cu4g-1       3Cu4g0        3Cu4g+1       3Cu4g+2       3Cu4g+3       3Cu4g+4   
   94    3Cu5g-4       3Cu5g-3       3Cu5g-2       3Cu5g-1       3Cu5g0        3Cu5g+1       3Cu5g+2       3Cu5g+3       3Cu5g+4       3Cu6g-4   
   95    3Cu6g-3       3Cu6g-2       3Cu6g-1       3Cu6g0        3Cu6g+1       3Cu6g+2       3Cu6g+3       3Cu6g+4       3Cu7g-4       3Cu7g-3   
   96    3Cu7g-2       3Cu7g-1       3Cu7g0        3Cu7g+1       3Cu7g+2       3Cu7g+3       3Cu7g+4       3Cu8g-4       3Cu8g-3       3Cu8g-2   
   97    3Cu8g-1       3Cu8g0        3Cu8g+1       3Cu8g+2       3Cu8g+3       3Cu8g+4       3Cu1h-5       3Cu1h-4       3Cu1h-3       3Cu1h-2   
   98    3Cu1h-1       3Cu1h0        3Cu1h+1       3Cu1h+2       3Cu1h+3       3Cu1h+4       3Cu1h+5       3Cu2h-5       3Cu2h-4       3Cu2h-3   
   99    3Cu2h-2       3Cu2h-1       3Cu2h0        3Cu2h+1       3Cu2h+2       3Cu2h+3       3Cu2h+4       3Cu2h+5       3Cu3h-5       3Cu3h-4   
  100    3Cu3h-3       3Cu3h-2       3Cu3h-1       3Cu3h0        3Cu3h+1       3Cu3h+2       3Cu3h+3       3Cu3h+4       3Cu3h+5       3Cu4h-5   
  101    3Cu4h-4       3Cu4h-3       3Cu4h-2       3Cu4h-1       3Cu4h0        3Cu4h+1       3Cu4h+2       3Cu4h+3       3Cu4h+4       3Cu4h+5   
  102    3Cu5h-5       3Cu5h-4       3Cu5h-3       3Cu5h-2       3Cu5h-1       3Cu5h0        3Cu5h+1       3Cu5h+2       3Cu5h+3       3Cu5h+4   
  103    3Cu5h+5       3Cu1i-6       3Cu1i-5       3Cu1i-4       3Cu1i-3       3Cu1i-2       3Cu1i-1       3Cu1i0        3Cu1i+1       3Cu1i+2   
  104    3Cu1i+3       3Cu1i+4       3Cu1i+5       3Cu1i+6       3Cu2i-6       3Cu2i-5       3Cu2i-4       3Cu2i-3       3Cu2i-2       3Cu2i-1   
  105    3Cu2i0        3Cu2i+1       3Cu2i+2       3Cu2i+3       3Cu2i+4       3Cu2i+5       3Cu2i+6       3Cu3i-6       3Cu3i-5       3Cu3i-4   
  106    3Cu3i-3       3Cu3i-2       3Cu3i-1       3Cu3i0        3Cu3i+1       3Cu3i+2       3Cu3i+3       3Cu3i+4       3Cu3i+5       3Cu3i+6   
  107    3Cu4i-6       3Cu4i-5       3Cu4i-4       3Cu4i-3       3Cu4i-2       3Cu4i-1       3Cu4i0        3Cu4i+1       3Cu4i+2       3Cu4i+3   
  108    3Cu4i+4       3Cu4i+5       3Cu4i+6       4Cu1s         4Cu2s         4Cu3s         4Cu4s         4Cu5s         4Cu6s         4Cu7s     
  109    4Cu8s         4Cu9s         4Cu10s        4Cu11s        4Cu12s        4Cu13s        4Cu1pz        4Cu1py        4Cu1px        4Cu2pz    
  110    4Cu2py        4Cu2px        4Cu3pz        4Cu3py        4Cu3px        4Cu4pz        4Cu4py        4Cu4px        4Cu5pz        4Cu5py    
  111    4Cu5px        4Cu6pz        4Cu6py        4Cu6px        4Cu7pz        4Cu7py        4Cu7px        4Cu8pz        4Cu8py        4Cu8px    
  112    4Cu9pz        4Cu9py        4Cu9px        4Cu10pz       4Cu10py       4Cu10px       4Cu11pz       4Cu11py       4Cu11px       4Cu12pz   
  113    4Cu12py       4Cu12px       4Cu13pz       4Cu13py       4Cu13px       4Cu1d-2       4Cu1d-1       4Cu1d0        4Cu1d+1       4Cu1d+2   
  114    4Cu2d-2       4Cu2d-1       4Cu2d0        4Cu2d+1       4Cu2d+2       4Cu3d-2       4Cu3d-1       4Cu3d0        4Cu3d+1       4Cu3d+2   
  115    4Cu4d-2       4Cu4d-1       4Cu4d0        4Cu4d+1       4Cu4d+2       4Cu5d-2       4Cu5d-1       4Cu5d0        4Cu5d+1       4Cu5d+2   
  116    4Cu6d-2       4Cu6d-1       4Cu6d0        4Cu6d+1       4Cu6d+2       4Cu7d-2       4Cu7d-1       4Cu7d0        4Cu7d+1       4Cu7d+2   
  117    4Cu8d-2       4Cu8d-1       4Cu8d0        4Cu8d+1       4Cu8d+2       4Cu9d-2       4Cu9d-1       4Cu9d0        4Cu9d+1       4Cu9d+2   
  118    4Cu10d-2      4Cu10d-1      4Cu10d0       4Cu10d+1      4Cu10d+2      4Cu11d-2      4Cu11d-1      4Cu11d0       4Cu11d+1      4Cu11d+2  
  119    4Cu12d-2      4Cu12d-1      4Cu12d0       4Cu12d+1      4Cu12d+2      4Cu1f-3       4Cu1f-2       4Cu1f-1       4Cu1f0        4Cu1f+1   
  120    4Cu1f+2       4Cu1f+3       4Cu2f-3       4Cu2f-2       4Cu2f-1       4Cu2f0        4Cu2f+1       4Cu2f+2       4Cu2f+3       4Cu3f-3   
  121    4Cu3f-2       4Cu3f-1       4Cu3f0        4Cu3f+1       4Cu3f+2       4Cu3f+3       4Cu4f-3       4Cu4f-2       4Cu4f-1       4Cu4f0    
  122    4Cu4f+1       4Cu4f+2       4Cu4f+3       4Cu5f-3       4Cu5f-2       4Cu5f-1       4Cu5f0        4Cu5f+1       4Cu5f+2       4Cu5f+3   
  123    4Cu6f-3       4Cu6f-2       4Cu6f-1       4Cu6f0        4Cu6f+1       4Cu6f+2       4Cu6f+3       4Cu7f-3       4Cu7f-2       4Cu7f-1   
  124    4Cu7f0        4Cu7f+1       4Cu7f+2       4Cu7f+3       4Cu8f-3       4Cu8f-2       4Cu8f-1       4Cu8f0        4Cu8f+1       4Cu8f+2   
  125    4Cu8f+3       4Cu9f-3       4Cu9f-2       4Cu9f-1       4Cu9f0        4Cu9f+1       4Cu9f+2       4Cu9f+3       4Cu10f-3      4Cu10f-2  
  126    4Cu10f-1      4Cu10f0       4Cu10f+1      4Cu10f+2      4Cu10f+3      4Cu1g-4       4Cu1g-3       4Cu1g-2       4Cu1g-1       4Cu1g0    
  127    4Cu1g+1       4Cu1g+2       4Cu1g+3       4Cu1g+4       4Cu2g-4       4Cu2g-3       4Cu2g-2       4Cu2g-1       4Cu2g0        4Cu2g+1   
  128    4Cu2g+2       4Cu2g+3       4Cu2g+4       4Cu3g-4       4Cu3g-3       4Cu3g-2       4Cu3g-1       4Cu3g0        4Cu3g+1       4Cu3g+2   
  129    4Cu3g+3       4Cu3g+4       4Cu4g-4       4Cu4g-3       4Cu4g-2       4Cu4g-1       4Cu4g0        4Cu4g+1       4Cu4g+2       4Cu4g+3   
  130    4Cu4g+4       4Cu5g-4       4Cu5g-3       4Cu5g-2       4Cu5g-1       4Cu5g0        4Cu5g+1       4Cu5g+2       4Cu5g+3       4Cu5g+4   
  131    4Cu6g-4       4Cu6g-3       4Cu6g-2       4Cu6g-1       4Cu6g0        4Cu6g+1       4Cu6g+2       4Cu6g+3       4Cu6g+4       4Cu7g-4   
  132    4Cu7g-3       4Cu7g-2       4Cu7g-1       4Cu7g0        4Cu7g+1       4Cu7g+2       4Cu7g+3       4Cu7g+4       4Cu8g-4       4Cu8g-3   
  133    4Cu8g-2       4Cu8g-1       4Cu8g0        4Cu8g+1       4Cu8g+2       4Cu8g+3       4Cu8g+4       4Cu1h-5       4Cu1h-4       4Cu1h-3   
  134    4Cu1h-2       4Cu1h-1       4Cu1h0        4Cu1h+1       4Cu1h+2       4Cu1h+3       4Cu1h+4       4Cu1h+5       4Cu2h-5       4Cu2h-4   
  135    4Cu2h-3       4Cu2h-2       4Cu2h-1       4Cu2h0        4Cu2h+1       4Cu2h+2       4Cu2h+3       4Cu2h+4       4Cu2h+5       4Cu3h-5   
  136    4Cu3h-4       4Cu3h-3       4Cu3h-2       4Cu3h-1       4Cu3h0        4Cu3h+1       4Cu3h+2       4Cu3h+3       4Cu3h+4       4Cu3h+5   
  137    4Cu4h-5       4Cu4h-4       4Cu4h-3       4Cu4h-2       4Cu4h-1       4Cu4h0        4Cu4h+1       4Cu4h+2       4Cu4h+3       4Cu4h+4   
  138    4Cu4h+5       4Cu5h-5       4Cu5h-4       4Cu5h-3       4Cu5h-2       4Cu5h-1       4Cu5h0        4Cu5h+1       4Cu5h+2       4Cu5h+3   
  139    4Cu5h+4       4Cu5h+5       4Cu1i-6       4Cu1i-5       4Cu1i-4       4Cu1i-3       4Cu1i-2       4Cu1i-1       4Cu1i0        4Cu1i+1   
  140    4Cu1i+2       4Cu1i+3       4Cu1i+4       4Cu1i+5       4Cu1i+6       4Cu2i-6       4Cu2i-5       4Cu2i-4       4Cu2i-3       4Cu2i-2   
  141    4Cu2i-1       4Cu2i0        4Cu2i+1       4Cu2i+2       4Cu2i+3       4Cu2i+4       4Cu2i+5       4Cu2i+6       4Cu3i-6       4Cu3i-5   
  142    4Cu3i-4       4Cu3i-3       4Cu3i-2       4Cu3i-1       4Cu3i0        4Cu3i+1       4Cu3i+2       4Cu3i+3       4Cu3i+4       4Cu3i+5   
  143    4Cu3i+6       4Cu4i-6       4Cu4i-5       4Cu4i-4       4Cu4i-3       4Cu4i-2       4Cu4i-1       4Cu4i0        4Cu4i+1       4Cu4i+2   
  144    4Cu4i+3       4Cu4i+4       4Cu4i+5       4Cu4i+6   
 
 Maximum number of basis functions per shell:   72
 Total number of basis functions:   1444
 
 
 Effective core potentials:
 
   1  Cu mcdhf-ecp-10        
   2  Cu mcdhf-ecp-10        
   3  Cu mcdhf-ecp-10        
   4  Cu mcdhf-ecp-10        
 
 Character table for point group C1:
 
          E  
    A     1
 
 Number of basis functions per irrep:
    A     488
 
 
 Calculation of overlap integrals...
 CPU time [min]:     0.111                   Wall time [min]:     0.006
 
 Calculation of the square root of the overlap matrix...
 Minimum eigenvalue of the overlap matrix: 0.306802E-04
 CPU time [min]:     0.158                   Wall time [min]:     0.008
 
 Calculation of kinetic energy integrals...
 CPU time [min]:     0.160                   Wall time [min]:     0.008
 Calculation of dipole moment integrals...
 CPU time [min]:     0.166                   Wall time [min]:     0.008
 Calculation of nuclear attraction integrals...
 CPU time [min]:     0.171                   Wall time [min]:     0.008
 Calculation of core potential integrals...
 CPU time [min]:     0.575                   Wall time [min]:     0.300
 
 Calculation of prescreening integrals...
 CPU time [min]:     8.403                   Wall time [min]:     0.529
 
 Calculation of two-center Coulomb integrals...
   1% done.
  13% done.
  24% done.
  37% done.
  50% done.
  64% done.
  84% done.
  98% done.
 100% done.
 CPU time [min]:     8.418                   Wall time [min]:     0.529
 
 Cholesky decomposition of the two-center matrix...
 Reciprocal of the condition number:  0.957481E-05
 CPU time [min]:     8.465                   Wall time [min]:     0.531
 

 ************************ 2023-10-21 21:52:49 *************************
 Executing scf...

 @scfsetup: integrals calculated directly
            mrcc/integ direct run
 @scfsetup: calculating on full matrices
            not using symmetry adapted basis
 @scfsetup: diis switched on
 @scfsetup: number of steps to extrapolate from  10
 @scfsetup: tolerance in energy deviation    0.100000E-05
            tolerance in density deviation    0.100000E-06
 @scfsetup: maximum number of iterations:  50
 @scfsetup: restricted closed shell hf calc
 @scfsetup: restarting scf from MOCOEF file
 @scfsetup: occupation set:
            from initial orbitals
 @scfsetup: Parameter-set for SCF acceleration: difficult
 @scfsetup: diis runs from iteration:   2
 @scfsetup: diis runs to iteration:  50
 @scfsetup: diis runs in every iteration
 @scfsetup: diiswatch is disabled                   
 @scfsetup: diis dtol criteria to switch on:      0.0000E+00
           (or the iteration number below is reached)
 @scfsetup: damping is turned off.
 @scfsetup: dynamic level shifting
            tolarance in HOMO-LUMO gap:  0.200
            tolarance in density deviation:     0.0000E+00
            iteration step criteria to turn level shifting off: 8
 Allocation of 220.0 Gbytes of memory...
 ======================================================================
 ITERATION STEP   1
 CPU time [min]:     0.035                   Wall time [min]:     0.005
 

 SCF control                  : initial
 Damping factor/level shift   : 0.000/0.200
 DIIS [start/end/frequency]   :   2 / 50 /  1

 Constructing Fock-matrix...
 
 Pipek-Mezey localization...
 Step  Convergence
   1  19.133096230250
   2  10.081763108861
   3   4.034719349629
   4   1.581745747105
   5   0.227226452307
   6   0.007050295560
   7   0.000266987626
   8   0.000026274673
   9   0.000003588596
  10   0.000000636666
 CPU time [min]:     0.064                   Wall time [min]:     0.006
 
 Constructing local fitting domains...
 Maximum number of atoms in fitting domains:    4
 Average number of atoms in fitting domains:    4.0
 
 First step of Coulomb + first step of exchange...
 Exchange contribution is evaluated for MOs 1 to 38.
   2% done.
  15% done.
  27% done.
  41% done.
  56% done.
  67% done.
  79% done.
 100% done.
 CPU time [min]:     0.909                   Wall time [min]:     0.029
 
 Fitting and assembly step of exchange...
 CPU time [min]:     0.947                   Wall time [min]:     0.031
 
 Second step of Coulomb...
   2% done.
  15% done.
  27% done.
  41% done.
  56% done.
  67% done.
  79% done.
 100% done.
 CPU time [min]:     1.315                   Wall time [min]:     0.041
 
 Gradient norm:      1.7990E+01
 RMS of [F,P]:                                         0.00266054954859
 RMS of difference density:                            0.00143718885474
 Gap [au]:  0.20673580
 ALPHA OCC:  38
 BETA  OCC:  38
 
 ***HARTREE-FOCK ENERGY IN STEP   1 IS       -784.6337569988538689 [AU]
 ======================================================================
 ITERATION STEP   2
 CPU time [min]:     1.350                   Wall time [min]:     0.042
 

 SCF control                  : diis
 Damping factor/level shift   : 0.000/0.000
 DIIS [start/end/frequency]   :   2 / 50 /  1

 Constructing Fock-matrix...
 
 Pipek-Mezey localization...
 Step  Convergence
   1   6.928460794156
   2   3.707488842890
   3   0.824928106244
   4   0.418758776459
   5   0.004952166896
   6   0.000128924331
   7   0.000010525789
   8   0.000001375133
   9   0.000000185370
 CPU time [min]:     1.378                   Wall time [min]:     0.043
 
 Constructing local fitting domains...
 Maximum number of atoms in fitting domains:    4
 Average number of atoms in fitting domains:    4.0
 
 First step of Coulomb + first step of exchange...
 Exchange contribution is evaluated for MOs 1 to 38.
   2% done.
  15% done.
  27% done.
  41% done.
  56% done.
  67% done.
  79% done.
 100% done.
 CPU time [min]:     2.194                   Wall time [min]:     0.066
 
 Fitting and assembly step of exchange...
 CPU time [min]:     2.230                   Wall time [min]:     0.067
 
 Second step of Coulomb...
   2% done.
  15% done.
  27% done.
  41% done.
  56% done.
  67% done.
  79% done.
 100% done.
 CPU time [min]:     2.592                   Wall time [min]:     0.077
 
 Gradient norm:      1.7990E+01
 DIIS is running in this iteration step.
 RMS of [F,P]:                                         0.00125579871152
 RMS of difference density:                            0.00114190527038
 Gap [au]:  0.19073260
 ALPHA OCC:  38
 BETA  OCC:  38
 
 ***HARTREE-FOCK ENERGY IN STEP   2 IS       -784.7224133447475651 [AU]
 
 Step comparison  Energy Drift [au]  DIIS error drift  Gradient drift
        1            8.8656E-02         1.4048E-03       0.0000E+00
        2            7.8472E+02         1.0000E-07       0.0000E+00
 ======================================================================
 ITERATION STEP   3
 CPU time [min]:     2.631                   Wall time [min]:     0.078
 

 SCF control                  : diis
 Damping factor/level shift   : 0.000/0.200
 DIIS [start/end/frequency]   :   2 / 50 /  1

 Constructing Fock-matrix...
 
 Pipek-Mezey localization...
 Step  Convergence
   1  10.908134569006
   2   2.015495813566
   3   1.742767031216
   4   0.526942762765
   5   0.094292137063
   6   0.033861811302
   7   0.002168990397
   8   0.000199729337
   9   0.000034620978
  10   0.000005021608
  11   0.000000829999
 CPU time [min]:     2.661                   Wall time [min]:     0.079
 
 Constructing local fitting domains...
 Local fitting domains are unchanged.
 
 First step of Coulomb + first step of exchange...
 Exchange contribution is evaluated for MOs 1 to 38.
   2% done.
  15% done.
  27% done.
  41% done.
  56% done.
  67% done.
  79% done.
 100% done.
 CPU time [min]:     3.475                   Wall time [min]:     0.101
 
 Fitting and assembly step of exchange...
 CPU time [min]:     3.512                   Wall time [min]:     0.102
 
 Second step of Coulomb...
   2% done.
  15% done.
  27% done.
  41% done.
  56% done.
  67% done.
  79% done.
 100% done.
 CPU time [min]:     3.873                   Wall time [min]:     0.112
 
 Gradient norm:      1.7990E+01
 DIIS is running in this iteration step.
 RMS of [F,P]:                                         0.00175397552506
 RMS of difference density:                            0.00038368830198
 Gap [au]:  0.19671010
 ALPHA OCC:  38
 BETA  OCC:  38
 
 ***HARTREE-FOCK ENERGY IN STEP   3 IS       -784.7154233618871331 [AU]
 
 Step comparison  Energy Drift [au]  DIIS error drift  Gradient drift
        2           -6.9900E-03        -4.9818E-04       0.0000E+00
 Warning! The energy goes uphill (with respect to previous step).
 Warning! The DIIS error goes uphill (with respect to previous step).
 Warning! The DIIS error goes uphill (with respect to step   2 ).
 ======================================================================
 ITERATION STEP   4
 CPU time [min]:     3.909                   Wall time [min]:     0.113
 

 SCF control                  : diis
 Damping factor/level shift   : 0.000/0.200
 DIIS [start/end/frequency]   :   2 / 50 /  1

 Constructing Fock-matrix...
 
 Pipek-Mezey localization...
 Step  Convergence
   1  17.643453127532
   2   8.626224925052
   3   8.712848128160
   4   2.626712334824
   5   0.313113174716
   6   0.027276262044
   7   0.000887533244
   8   0.000159651405
   9   0.000029637433
  10   0.000005576758
  11   0.000001052385
  12   0.000000199590
  13   0.000000037965
  14   0.000000007240
  15   0.000000001383
  16   0.000000000264
  17   0.000000000051
  18   0.000000000010
  19   0.000000000002
  20   0.000000000000
 CPU time [min]:     3.944                   Wall time [min]:     0.114
 
 Constructing local fitting domains...
 Local fitting domains are unchanged.
 
 First step of Coulomb + first step of exchange...
 Exchange contribution is evaluated for MOs 1 to 38.
   2% done.
  15% done.
  27% done.
  41% done.
  56% done.
  67% done.
  79% done.
 100% done.
 CPU time [min]:     4.760                   Wall time [min]:     0.137
 
 Fitting and assembly step of exchange...
 CPU time [min]:     4.797                   Wall time [min]:     0.138
 
 Second step of Coulomb...
   2% done.
  15% done.
  27% done.
  41% done.
  56% done.
  67% done.
  79% done.
 100% done.
 CPU time [min]:     5.158                   Wall time [min]:     0.148
 
 Gradient norm:      1.7990E+01
 DIIS is running in this iteration step.
 RMS of [F,P]:                                         0.00013708543500
 RMS of difference density:                            0.00019484258274
 Gap [au]:  0.19767576
 ALPHA OCC:  38
 BETA  OCC:  38
 
 ***HARTREE-FOCK ENERGY IN STEP   4 IS       -784.7400979548976920 [AU]
 
 Step comparison  Energy Drift [au]  DIIS error drift  Gradient drift
        3            2.4675E-02         1.6169E-03       0.0000E+00
        4            1.7685E-02         1.1187E-03       0.0000E+00
 ======================================================================
 ITERATION STEP   5
 CPU time [min]:     5.194                   Wall time [min]:     0.149
 

 SCF control                  : diis
 Damping factor/level shift   : 0.000/0.200
 DIIS [start/end/frequency]   :   2 / 50 /  1

 Constructing Fock-matrix...
 
 Pipek-Mezey localization...
 Step  Convergence
   1  16.817057102565
   2  11.269167876050
   3   7.785530911066
   4   3.607481990705
   5   0.904712489326
   6   0.161109294191
   7   0.002386255695
   8   0.013502493415
   9   0.000589701043
  10   0.001249821943
  11   0.000145750966
  12   0.000100764225
  13   0.000021162126
  14   0.000008717019
  15   0.000002350342
  16   0.000000802196
  17   0.000000236998
  18   0.000000075858
  19   0.000000023130
  20   0.000000007248
  21   0.000000002233
  22   0.000000000694
  23   0.000000000214
  24   0.000000000068
  25   0.000000000020
  26   0.000000000007
  27   0.000000000002
  28   0.000000000001
 CPU time [min]:     5.235                   Wall time [min]:     0.150
 
 Constructing local fitting domains...
 Local fitting domains are unchanged.
 
 First step of Coulomb + first step of exchange...
 Exchange contribution is evaluated for MOs 1 to 38.
   2% done.
  15% done.
  27% done.
  41% done.
  56% done.
  67% done.
  79% done.
 100% done.
 CPU time [min]:     6.048                   Wall time [min]:     0.173
 
 Fitting and assembly step of exchange...
 CPU time [min]:     6.085                   Wall time [min]:     0.174
 
 Second step of Coulomb...
   2% done.
  15% done.
  27% done.
  41% done.
  56% done.
  67% done.
  79% done.
 100% done.
 CPU time [min]:     6.446                   Wall time [min]:     0.184
 
 Gradient norm:      1.7990E+01
 DIIS is running in this iteration step.
 RMS of [F,P]:                                         0.00008258286637
 RMS of difference density:                            0.00012938638753
 Gap [au]:  0.19677530
 ALPHA OCC:  38
 BETA  OCC:  38
 
 ***HARTREE-FOCK ENERGY IN STEP   5 IS       -784.7409122420460790 [AU]
 
 Step comparison  Energy Drift [au]  DIIS error drift  Gradient drift
        4            8.1429E-04         5.4503E-05       0.0000E+00
 ======================================================================
 ITERATION STEP   6
 CPU time [min]:     6.482                   Wall time [min]:     0.185
 

 SCF control                  : diis
 Damping factor/level shift   : 0.000/0.200
 DIIS [start/end/frequency]   :   2 / 50 /  1

 Constructing Fock-matrix...
 
 Pipek-Mezey localization...
 Step  Convergence
   1  15.110551748302
   2   7.383118275722
   3   7.352012850718
   4   3.784249455741
   5   1.206533564396
   6   0.040697084851
   7   0.002053373817
   8   0.000069970293
   9   0.000014509860
  10   0.000003856733
  11   0.000001013811
  12   0.000000279264
  13   0.000000075940
  14   0.000000020841
  15   0.000000005703
  16   0.000000001564
  17   0.000000000429
  18   0.000000000117
  19   0.000000000032
  20   0.000000000009
  21   0.000000000002
  22   0.000000000001
 CPU time [min]:     6.520                   Wall time [min]:     0.186
 
 Constructing local fitting domains...
 Local fitting domains are unchanged.
 
 First step of Coulomb + first step of exchange...
 Exchange contribution is evaluated for MOs 1 to 38.
   2% done.
  15% done.
  27% done.
  41% done.
  56% done.
  67% done.
  79% done.
 100% done.
 CPU time [min]:     7.334                   Wall time [min]:     0.209
 
 Fitting and assembly step of exchange...
 CPU time [min]:     7.371                   Wall time [min]:     0.210
 
 Second step of Coulomb...
   2% done.
  15% done.
  27% done.
  41% done.
  56% done.
  67% done.
  79% done.
 100% done.
 CPU time [min]:     7.732                   Wall time [min]:     0.220
 
 Gradient norm:      1.7990E+01
 DIIS is running in this iteration step.
 RMS of [F,P]:                                         0.00003987654338
 RMS of difference density:                            0.00006695004746
 Gap [au]:  0.19649284
 ALPHA OCC:  38
 BETA  OCC:  38
 
 ***HARTREE-FOCK ENERGY IN STEP   6 IS       -784.7411340845299037 [AU]
 
 Step comparison  Energy Drift [au]  DIIS error drift  Gradient drift
        5            2.2184E-04         4.2706E-05       0.0000E+00
 ======================================================================
 ITERATION STEP   7
 CPU time [min]:     7.768                   Wall time [min]:     0.221
 

 SCF control                  : diis
 Damping factor/level shift   : 0.000/0.200
 DIIS [start/end/frequency]   :   2 / 50 /  1

 Constructing Fock-matrix...
 
 Pipek-Mezey localization...
 Step  Convergence
   1  12.049786468509
   2   6.414770571040
   3   5.496369460595
   4   2.967517076397
   5   1.011306582534
   6   0.055672601114
   7   0.001130984234
   8   0.000041068441
   9   0.000008509788
  10   0.000002017599
  11   0.000000479828
  12   0.000000118892
  13   0.000000029839
  14   0.000000007653
  15   0.000000001995
  16   0.000000000529
  17   0.000000000142
  18   0.000000000039
  19   0.000000000011
  20   0.000000000003
  21   0.000000000001
 CPU time [min]:     7.809                   Wall time [min]:     0.222
 
 Constructing local fitting domains...
 Local fitting domains are unchanged.
 
 First step of Coulomb + first step of exchange...
 Exchange contribution is evaluated for MOs 1 to 38.
   2% done.
  15% done.
  27% done.
  41% done.
  56% done.
  67% done.
  79% done.
 100% done.
 CPU time [min]:     8.623                   Wall time [min]:     0.245
 
 Fitting and assembly step of exchange...
 CPU time [min]:     8.660                   Wall time [min]:     0.246
 
 Second step of Coulomb...
   2% done.
  15% done.
  27% done.
  41% done.
  56% done.
  67% done.
  79% done.
 100% done.
 CPU time [min]:     9.035                   Wall time [min]:     0.256
 
 Gradient norm:      1.7990E+01
 DIIS is running in this iteration step.
 RMS of [F,P]:                                         0.00001393814674
 RMS of difference density:                            0.00004356301890
 Gap [au]:  0.19647233
 ALPHA OCC:  38
 BETA  OCC:  38
 
 ***HARTREE-FOCK ENERGY IN STEP   7 IS       -784.7411923509303051 [AU]
 
 Step comparison  Energy Drift [au]  DIIS error drift  Gradient drift
        6            5.8266E-05         2.5938E-05       0.0000E+00
 ======================================================================
 ITERATION STEP   8
 CPU time [min]:     9.072                   Wall time [min]:     0.257
 

 SCF control                  : diis
 Damping factor/level shift   : 0.000/0.200
 DIIS [start/end/frequency]   :   2 / 50 /  1

 Constructing Fock-matrix...
 
 Pipek-Mezey localization...
 Step  Convergence
   1  15.213097522753
   2   9.008067145651
   3   6.374514700811
   4   3.915572524286
   5   0.747037787789
   6   0.026510768053
   7   0.002627829065
   8   0.000281227104
   9   0.000075244062
  10   0.000018296723
  11   0.000004743539
  12   0.000001242055
  13   0.000000333249
  14   0.000000077987
  15   0.000000030545
  16   0.000000008116
  17   0.000000002292
  18   0.000000000635
  19   0.000000000179
  20   0.000000000051
  21   0.000000000014
  22   0.000000000004
  23   0.000000000001
  24   0.000000000000
 CPU time [min]:     9.115                   Wall time [min]:     0.259
 
 Constructing local fitting domains...
 Local fitting domains are unchanged.
 
 First step of Coulomb + first step of exchange...
 Exchange contribution is evaluated for MOs 1 to 38.
   2% done.
  15% done.
  27% done.
  41% done.
  56% done.
  67% done.
  79% done.
 100% done.
 CPU time [min]:     9.931                   Wall time [min]:     0.281
 
 Fitting and assembly step of exchange...
 CPU time [min]:     9.967                   Wall time [min]:     0.282
 
 Second step of Coulomb...
   2% done.
  15% done.
  27% done.
  41% done.
  56% done.
  67% done.
  79% done.
 100% done.
 CPU time [min]:    10.328                   Wall time [min]:     0.292
 
 Gradient norm:      1.7990E+01
 DIIS is running in this iteration step.
 RMS of [F,P]:                                         0.00000872797937
 RMS of difference density:                            0.00002999334349
 Gap [au]:  0.19642535
 ALPHA OCC:  38
 BETA  OCC:  38
 
 ***HARTREE-FOCK ENERGY IN STEP   8 IS       -784.7412132187903353 [AU]
 
 Step comparison  Energy Drift [au]  DIIS error drift  Gradient drift
        7            2.0868E-05         5.2102E-06       0.0000E+00
 ======================================================================
 ITERATION STEP   9
 CPU time [min]:    10.392                   Wall time [min]:     0.294
 

 SCF control                  : diis
 Damping factor/level shift   : 0.000/0.000
 DIIS [start/end/frequency]   :   2 / 50 /  1

 Constructing Fock-matrix...
 
 Pipek-Mezey localization...
 Step  Convergence
   1  16.651329377953
   2   9.112159758170
   3   7.065214170245
   4   2.737310102038
   5   1.770064827046
   6   0.077966790746
   7   0.002191251314
   8   0.000436303061
   9   0.000098631598
  10   0.000026075541
  11   0.000006823595
  12   0.000001857358
  13   0.000000511894
  14   0.000000143835
  15   0.000000040917
  16   0.000000011773
  17   0.000000003227
  18   0.000000001040
  19   0.000000000329
  20   0.000000000097
  21   0.000000000028
  22   0.000000000008
  23   0.000000000002
  24   0.000000000001
 CPU time [min]:    10.436                   Wall time [min]:     0.295
 
 Constructing local fitting domains...
 Local fitting domains are unchanged.
 
 First step of Coulomb + first step of exchange...
 Exchange contribution is evaluated for MOs 1 to 38.
   2% done.
  15% done.
  27% done.
  41% done.
  56% done.
  67% done.
  79% done.
 100% done.
 CPU time [min]:    11.253                   Wall time [min]:     0.318
 
 Fitting and assembly step of exchange...
 CPU time [min]:    11.289                   Wall time [min]:     0.319
 
 Second step of Coulomb...
   2% done.
  15% done.
  27% done.
  41% done.
  56% done.
  67% done.
  79% done.
 100% done.
 CPU time [min]:    11.650                   Wall time [min]:     0.329
 
 Gradient norm:      1.7990E+01
 DIIS is running in this iteration step.
 RMS of [F,P]:                                         0.00000356423492
 RMS of difference density:                            0.00001925134802
 Gap [au]:  0.19641923
 ALPHA OCC:  38
 BETA  OCC:  38
 
 ***HARTREE-FOCK ENERGY IN STEP   9 IS       -784.7412223442067898 [AU]
 
 Step comparison  Energy Drift [au]  DIIS error drift  Gradient drift
        8            9.1254E-06         5.1637E-06       0.0000E+00
 ======================================================================
 ITERATION STEP  10
 CPU time [min]:    11.721                   Wall time [min]:     0.331
 

 SCF control                  : diis
 Damping factor/level shift   : 0.000/0.000
 DIIS [start/end/frequency]   :   2 / 50 /  1

 Constructing Fock-matrix...
 
 Pipek-Mezey localization...
 Step  Convergence
   1  16.043635702424
   2   9.378267086326
   3   8.614108846464
   4   6.078933305185
   5   0.831262061812
   6   0.197151970843
   7   0.006263830033
   8   0.000636852903
   9   0.000186050218
  10   0.000057316308
  11   0.000017124101
  12   0.000005171891
  13   0.000001555941
  14   0.000000468984
  15   0.000000141288
  16   0.000000042588
  17   0.000000012834
  18   0.000000003868
  19   0.000000001167
  20   0.000000000351
  21   0.000000000106
  22   0.000000000032
  23   0.000000000010
  24   0.000000000003
  25   0.000000000001
 CPU time [min]:    11.761                   Wall time [min]:     0.332
 
 Constructing local fitting domains...
 Local fitting domains are unchanged.
 
 First step of Coulomb + first step of exchange...
 Exchange contribution is evaluated for MOs 1 to 38.
   2% done.
  15% done.
  27% done.
  41% done.
  56% done.
  67% done.
  79% done.
 100% done.
 CPU time [min]:    12.576                   Wall time [min]:     0.355
 
 Fitting and assembly step of exchange...
 CPU time [min]:    12.612                   Wall time [min]:     0.356
 
 Second step of Coulomb...
   2% done.
  15% done.
  27% done.
  41% done.
  56% done.
  67% done.
  79% done.
 100% done.
 CPU time [min]:    12.974                   Wall time [min]:     0.366
 
 Gradient norm:      1.7990E+01
 DIIS is running in this iteration step.
 RMS of [F,P]:                                         0.00000097023393
 RMS of difference density:                            0.00000506630030
 Gap [au]:  0.19641261
 ALPHA OCC:  38
 BETA  OCC:  38
 
 ***HARTREE-FOCK ENERGY IN STEP  10 IS       -784.7412249612532378 [AU]
 
 Step comparison  Energy Drift [au]  DIIS error drift  Gradient drift
        9            2.6170E-06         2.5940E-06       0.0000E+00
 ======================================================================
 ITERATION STEP  11
 CPU time [min]:    13.029                   Wall time [min]:     0.368
 

 SCF control                  : diis
 Damping factor/level shift   : 0.000/0.000
 DIIS [start/end/frequency]   :   2 / 50 /  1

 Constructing Fock-matrix...
 
 Pipek-Mezey localization...
 Step  Convergence
   1  15.289843515912
   2   6.042134275993
   3   6.728458068819
   4   3.038690407985
   5   1.118134972799
   6   0.525813089682
   7   0.011814707326
   8   0.000442140297
   9   0.000052121872
  10   0.000014981890
  11   0.000004441849
  12   0.000001332617
  13   0.000000401520
  14   0.000000121332
  15   0.000000036735
  16   0.000000011142
  17   0.000000003381
  18   0.000000001025
  19   0.000000000313
  20   0.000000000095
  21   0.000000000029
  22   0.000000000009
  23   0.000000000003
  24   0.000000000001
 CPU time [min]:    13.068                   Wall time [min]:     0.369
 
 Constructing local fitting domains...
 Local fitting domains are unchanged.
 
 First step of Coulomb + first step of exchange...
 Exchange contribution is evaluated for MOs 1 to 38.
   2% done.
  15% done.
  27% done.
  41% done.
  56% done.
  67% done.
  79% done.
 100% done.
 CPU time [min]:    13.883                   Wall time [min]:     0.392
 
 Fitting and assembly step of exchange...
 CPU time [min]:    13.920                   Wall time [min]:     0.393
 
 Second step of Coulomb...
   2% done.
  15% done.
  27% done.
  41% done.
  56% done.
  67% done.
  79% done.
 100% done.
 CPU time [min]:    14.281                   Wall time [min]:     0.403
 
 Gradient norm:      1.7990E+01
 DIIS is running in this iteration step.
 RMS of [F,P]:                                         0.00000033497472
 RMS of difference density:                            0.00000138302040
 Gap [au]:  0.19640772
 ALPHA OCC:  38
 BETA  OCC:  38
 
 ***HARTREE-FOCK ENERGY IN STEP  11 IS       -784.7412251276393818 [AU]
 
 Step comparison  Energy Drift [au]  DIIS error drift  Gradient drift
       10            1.6639E-07         6.3526E-07       0.0000E+00
 ======================================================================
 ITERATION STEP  12
 CPU time [min]:    14.319                   Wall time [min]:     0.404
 

 SCF control                  : diis
 Damping factor/level shift   : 0.000/0.000
 DIIS [start/end/frequency]   :   2 / 50 /  1

 Constructing Fock-matrix...
 
 Pipek-Mezey localization...
 Step  Convergence
   1  14.867031353587
   2   5.922120166905
   3   7.425598207953
   4   3.363877799569
   5   1.586249925664
   6   0.294392833822
   7   0.003666828454
   8   0.000204479974
   9   0.000061616024
  10   0.000015161146
  11   0.000005269910
  12   0.000001707316
  13   0.000000611872
  14   0.000000217581
  15   0.000000081948
  16   0.000000031276
  17   0.000000012383
  18   0.000000004985
  19   0.000000002052
  20   0.000000000854
  21   0.000000000360
  22   0.000000000153
  23   0.000000000065
  24   0.000000000028
  25   0.000000000012
  26   0.000000000005
  27   0.000000000002
  28   0.000000000001
 CPU time [min]:    14.361                   Wall time [min]:     0.405
 
 Constructing local fitting domains...
 Local fitting domains are unchanged.
 
 First step of Coulomb + first step of exchange...
 Exchange contribution is evaluated for MOs 1 to 38.
   2% done.
  15% done.
  27% done.
  41% done.
  56% done.
  67% done.
  79% done.
 100% done.
 CPU time [min]:    15.175                   Wall time [min]:     0.428
 
 Fitting and assembly step of exchange...
 CPU time [min]:    15.212                   Wall time [min]:     0.429
 
 Second step of Coulomb...
   2% done.
  15% done.
  27% done.
  41% done.
  56% done.
  67% done.
  79% done.
 100% done.
 CPU time [min]:    15.573                   Wall time [min]:     0.439
 
 Gradient norm:      1.7990E+01
 DIIS is running in this iteration step.
 RMS of [F,P]:                                         0.00000009451756
 RMS of difference density:                            0.00000046765611
 Gap [au]:  0.19640798
 ALPHA OCC:  38
 BETA  OCC:  38
 
 ***HARTREE-FOCK ENERGY IN STEP  12 IS       -784.7412251416365052 [AU]
 
 Step comparison  Energy Drift [au]  DIIS error drift  Gradient drift
       11            1.3997E-08         2.4046E-07       0.0000E+00
 ======================================================================
 ITERATION STEP  13
 CPU time [min]:    15.611                   Wall time [min]:     0.440
 

 SCF control                  : diis
 Damping factor/level shift   : 0.000/0.000
 DIIS [start/end/frequency]   :   2 / 50 /  1

 Constructing Fock-matrix...
 
 Pipek-Mezey localization...
 Step  Convergence
   1  15.675324391120
   2   9.042326947480
   3   8.460651008716
   4   3.515131704353
   5   1.280524425608
   6   0.238713839409
   7   0.003287965580
   8   0.000151407896
   9   0.000205058859
  10   0.000023826567
  11   0.000021577857
  12   0.000005968822
  13   0.000003276852
  14   0.000001231526
  15   0.000000573263
  16   0.000000237610
  17   0.000000105189
  18   0.000000044963
  19   0.000000019611
  20   0.000000008464
  21   0.000000003676
  22   0.000000001592
  23   0.000000000690
  24   0.000000000299
  25   0.000000000129
  26   0.000000000056
  27   0.000000000024
  28   0.000000000011
  29   0.000000000005
  30   0.000000000002
  31   0.000000000001
[...]
 Number of virtual  orbitals:   446
 Number of Cholesky vectors:      9
 MP2 energy in ED [au]:          -0.150464070174
 Number of occupied LNOs:        21  (75.00%)
 Number of virtual  LNOs:       104  (23.32%)
 tol*100>norm                    43  3.474805380723052E-003
 tol*100>norm                    44  1.848947013671010E-003
 tol*100>norm                    45  2.096322902487278E-003
 tol*100>norm                    46  1.863952311792525E-003
 tol*100>norm                    47  5.033169408059513E-003
dropped smallnorm   124   125   8.55328045E-06
dropped smallnorm   135   137   2.64444229E-05
dropped smallnorm   135   138   3.27988968E-05
dropped smallnorm   135   139   1.89985940E-05
 tol*100>norm                   165  3.499861958433575E-003
 tol*100>norm                   166  1.895408807909921E-003
 tol*100>norm                   167  2.201116535551368E-003
 tol*100>norm                   168  1.863852200077644E-003
 tol*100>norm                   169  5.347231216210847E-003
dropped smallnorm   242   247   6.21597698E-06
dropped smallnorm   253   259   2.53366623E-05
dropped smallnorm   253   260   2.91809607E-05
dropped smallnorm   253   261   3.00025162E-05
 tol*100>norm                   287  5.991624586454124E-003
 tol*100>norm                   288  1.509683354571165E-003
 tol*100>norm                   289  2.293132049761683E-003
 tol*100>norm                   290  2.524168484145684E-003
 tol*100>norm                   291  3.007709474629196E-003
 tol*100>norm                   409  6.245113045967081E-003
 Number of Cholesky vectors:      8
 MP2 energy in LIS [au]:         -0.149136377111
 Correction for frozen LNO [au]: -0.001327693064     (0.882%)
 Number of NAFs:                418  (28.95%)
 CPU time [min]:   506.563                   Wall time [min]:    16.949
 

 Direct DF-CCSD(T) calculation
 
 Convergence criterion:  1.0E-05
 
 Number of occupied/virtual/auxiliary orbitals:    21   104   418
    252.39 MB is the minimal memory requirement for (T)
    153.84 MB is the minimal memory requirement for CCSD
 
 MP2 correlation energy [au]:       -1.425456722441
 
 LMP2 domain correlation energy contribution [au]:       -0.149129887372
 
 CPU time [min]:   506.724                   Wall time [min]:    16.954
 
 
 Starting CCSD iterations...
 
                     Residual norm       Correlation Energy
 Iteration  1        0.671200146122       -1.162279390277
 Iteration  2        0.381450730481       -1.259903859989
 Iteration  3        0.072074638636       -1.276222288812
 Iteration  4        0.036204636816       -1.275330221318
 Iteration  5        0.016667895463       -1.272889677061
 Iteration  6        0.008200784320       -1.272811871593
 Iteration  7        0.004741956678       -1.273285019126
 Iteration  8        0.002898887652       -1.273228309903
 Iteration  9        0.001548748960       -1.273160781180
 Iteration 10        0.000835946407       -1.273237843574
 Iteration 11        0.000422438863       -1.273228307555
 Iteration 12        0.000221596624       -1.273208159185
 Iteration 13        0.000132308923       -1.273211394404
 Iteration 14        0.000075671620       -1.273218878463
 
 CCSD iteration has converged in 14 steps.
      585.87 MB memory was utilized by CCSD
 
 T1 diagnostic:      2.938E-02            D1 diagnostic:      1.056E-01
 
 T1 contribution [au]:                         0.000000000000
 CCSD correlation energy [au]:                -0.126409034419
 
 CPU time [min]:   513.546                   Wall time [min]:    17.149
 
 Calculation of (T) correction...
 
 Laplace threshold, nquadmin:  1.00E-02   3
 Number of quadrature points:    3
 
      410.44 MB memory is utilized for (T)

 0%       25%       50%       75%       100%
 |---------|---------|---------|---------| 
 
 (T) correction [au]:                   -0.006523628039
 CCSD(T) correlation energy [au]:       -0.132932662458
 
 CPU time [min]:   515.970                   Wall time [min]:    17.222
 
 MO:    37
 Number of atoms in domain:       4
 Number of atomic orbitals:     488
 Number of atoms for local DF:    4
 Number of fitting functions:  1444 (100.00%)
 Warning: drop high-lying PAOs                     4
 Number of occupied orbitals:    38
 Number of virtual  orbitals:   446
 Number of Cholesky vectors:      9
 MP2 energy in ED [au]:          -0.075654507801
 Number of occupied LNOs:        32  (84.21%)
 Number of virtual  LNOs:       169  (37.89%)
dropped smallnorm     2     3   8.30812986E-06
dropped smallnorm    13    15   2.63444795E-05
dropped smallnorm    13    16   3.13366734E-05
dropped smallnorm    13    17   1.81941527E-05
 tol*100>norm                    43  3.171946789872850E-003
 tol*100>norm                    44  1.805289668528779E-003
 tol*100>norm                    45  1.944635473216191E-003
 tol*100>norm                    46  1.733814712065811E-003
 tol*100>norm                    47  4.884778438851481E-003
dropped smallnorm   120   125   8.30846681E-06
dropped smallnorm   131   137   2.63450060E-05
dropped smallnorm   131   138   3.13370194E-05
dropped smallnorm   131   139   1.81939312E-05
 tol*100>norm                   165  3.171853572838175E-003
 tol*100>norm                   166  1.805295434849173E-003
 tol*100>norm                   167  1.944628607759012E-003
 tol*100>norm                   168  1.733709086583451E-003
 tol*100>norm                   169  4.884424776255515E-003
dropped smallnorm   238   247   6.20966345E-06
dropped smallnorm   249   259   2.53290597E-05
dropped smallnorm   249   260   2.91687022E-05
dropped smallnorm   249   261   2.99933070E-05
 tol*100>norm                   287  5.947694434119601E-003
 tol*100>norm                   288  1.502423433808140E-003
 tol*100>norm                   289  2.281087246220122E-003
 tol*100>norm                   290  2.500769051095496E-003
 tol*100>norm                   291  2.985673767473988E-003
dropped smallnorm   356   369   6.20971533E-06
dropped smallnorm   367   381   2.53291646E-05
dropped smallnorm   367   382   2.91685925E-05
dropped smallnorm   367   383   2.99931246E-05
 tol*100>norm                   409  5.947593948487392E-003
 tol*100>norm                   410  1.502420786889558E-003
 tol*100>norm                   411  2.281080157247386E-003
 tol*100>norm                   412  2.500750363219389E-003
 tol*100>norm                   413  2.985661121953174E-003
 Number of Cholesky vectors:      8
 MP2 energy in LIS [au]:         -0.073617863464
 Correction for frozen LNO [au]: -0.002036644336     (2.692%)
 Number of NAFs:                675  (46.75%)
 CPU time [min]:   528.854                   Wall time [min]:    17.683
 

 Direct DF-CCSD(T) calculation
 
 Convergence criterion:  1.0E-05
 
 Number of occupied/virtual/auxiliary orbitals:    32   169   675
   1127.36 MB is the minimal memory requirement for (T)
    676.28 MB is the minimal memory requirement for CCSD
 
 MP2 correlation energy [au]:       -2.536405413270
 
 LMP2 domain correlation energy contribution [au]:       -0.073614162468
 
 CPU time [min]:   529.246                   Wall time [min]:    17.726
 
 
 Starting CCSD iterations...
 
                     Residual norm       Correlation Energy
 Iteration  1        0.864805092824       -1.979216571036
 Iteration  2        0.594551786081       -2.186345602533
 Iteration  3        0.082817469463       -2.215649031397
 Iteration  4        0.048312692416       -2.216407689866
 Iteration  5        0.023607102442       -2.211156986219
 Iteration  6        0.012049659041       -2.210027489220
 Iteration  7        0.008321170825       -2.211154018270
 Iteration  8        0.004926063594       -2.211647570019
 Iteration  9        0.003261592566       -2.211501523408
 Iteration 10        0.002076217973       -2.211472843178
 Iteration 11        0.001277032018       -2.211575921722
 Iteration 12        0.000778517171       -2.211533752281
 Iteration 13        0.000483131877       -2.211488683427
 Iteration 14        0.000306825033       -2.211516663063
 Iteration 15        0.000185767505       -2.211538092881
 Iteration 16        0.000103865101       -2.211526952401
 Iteration 17        0.000055655981       -2.211521459220
 Iteration 18        0.000028994136       -2.211524310399
 
 CCSD iteration has converged in 18 steps.
     3746.97 MB memory was utilized by CCSD
 
 T1 diagnostic:      3.430E-02            D1 diagnostic:      1.329E-01
 
 T1 contribution [au]:                         0.000000000000
 CCSD correlation energy [au]:                -0.071733764127
 
 CPU time [min]:   593.050                   Wall time [min]:    20.097
 
 Calculation of (T) correction...
 
 Laplace threshold, nquadmin:  1.00E-02   3
 Number of quadrature points:    3
 
     2280.33 MB memory is utilized for (T)

 0%       25%       50%       75%       100%
 |---------|---------|---------|---------| 
 
 (T) correction [au]:                   -0.008429288705
 CCSD(T) correlation energy [au]:       -0.080163052832
 
 CPU time [min]:   623.542                   Wall time [min]:    21.017
 
 MO:    38
 Number of atoms in domain:       4
 Number of atomic orbitals:     488
 Number of atoms for local DF:    4
 Number of fitting functions:  1444 (100.00%)
 Warning: drop high-lying PAOs                     4
 Number of occupied orbitals:    38
 Number of virtual  orbitals:   446
 Number of Cholesky vectors:      9
 MP2 energy in ED [au]:          -0.075654143851
 Number of occupied LNOs:        32  (84.21%)
 Number of virtual  LNOs:       169  (37.89%)
dropped smallnorm     2     3   8.30812986E-06
dropped smallnorm    13    15   2.63444795E-05
dropped smallnorm    13    16   3.13366734E-05
dropped smallnorm    13    17   1.81941527E-05
 tol*100>norm                    43  3.171946789872850E-003
 tol*100>norm                    44  1.805289668528779E-003
 tol*100>norm                    45  1.944635473216192E-003
 tol*100>norm                    46  1.733814712065811E-003
 tol*100>norm                    47  4.884778438851481E-003
dropped smallnorm   120   125   8.30846681E-06
dropped smallnorm   131   137   2.63450060E-05
dropped smallnorm   131   138   3.13370194E-05
dropped smallnorm   131   139   1.81939312E-05
 tol*100>norm                   165  3.171853572838174E-003
 tol*100>norm                   166  1.805295434849173E-003
 tol*100>norm                   167  1.944628607759011E-003
 tol*100>norm                   168  1.733709086583451E-003
 tol*100>norm                   169  4.884424776255515E-003
dropped smallnorm   238   247   6.20966345E-06
dropped smallnorm   249   259   2.53290597E-05
dropped smallnorm   249   260   2.91687022E-05
dropped smallnorm   249   261   2.99933070E-05
 tol*100>norm                   287  5.947694434119601E-003
 tol*100>norm                   288  1.502423433808139E-003
 tol*100>norm                   289  2.281087246220122E-003
 tol*100>norm                   290  2.500769051095496E-003
 tol*100>norm                   291  2.985673767473988E-003
dropped smallnorm   356   369   6.20971533E-06
dropped smallnorm   367   381   2.53291646E-05
dropped smallnorm   367   382   2.91685925E-05
dropped smallnorm   367   383   2.99931246E-05
 tol*100>norm                   409  5.947593948487394E-003
 tol*100>norm                   410  1.502420786889558E-003
 tol*100>norm                   411  2.281080157247386E-003
 tol*100>norm                   412  2.500750363219389E-003
 tol*100>norm                   413  2.985661121953173E-003
 Number of Cholesky vectors:      8
 MP2 energy in LIS [au]:         -0.073617514241
 Correction for frozen LNO [au]: -0.002036629610     (2.692%)
 Number of NAFs:                675  (46.75%)
 CPU time [min]:   636.391                   Wall time [min]:    21.478
 

 Direct DF-CCSD(T) calculation
 
 Convergence criterion:  1.0E-05
 
 Number of occupied/virtual/auxiliary orbitals:    32   169   675
   1127.36 MB is the minimal memory requirement for (T)
    676.28 MB is the minimal memory requirement for CCSD
 
 MP2 correlation energy [au]:       -2.536404355539
 
 LMP2 domain correlation energy contribution [au]:       -0.073613813221
 
 CPU time [min]:   636.786                   Wall time [min]:    21.520
 
 
 Starting CCSD iterations...
 
                     Residual norm       Correlation Energy
 Iteration  1        0.864804868694       -1.979215502690
 Iteration  2        0.594551663403       -2.186344509228
 Iteration  3        0.082817429929       -2.215647944755
 Iteration  4        0.048312682689       -2.216406605066
 Iteration  5        0.023607097295       -2.211155902739
 Iteration  6        0.012049666773       -2.210026400452
 Iteration  7        0.008321174109       -2.211152930161
 Iteration  8        0.004926070383       -2.211646483754
 Iteration  9        0.003261599105       -2.211500437646
 Iteration 10        0.002076222271       -2.211471756527
 Iteration 11        0.001277035893       -2.211574835702
 Iteration 12        0.000778519293       -2.211532666443
 Iteration 13        0.000483133556       -2.211487597420
 Iteration 14        0.000306826276       -2.211515576926
 Iteration 15        0.000185768400       -2.211537006925
 Iteration 16        0.000103865599       -2.211525866549
 Iteration 17        0.000055656482       -2.211520373232
 Iteration 18        0.000028994591       -2.211523224427
 
 CCSD iteration has converged in 18 steps.
     3746.97 MB memory was utilized by CCSD
 
 T1 diagnostic:      3.430E-02            D1 diagnostic:      1.329E-01
 
 T1 contribution [au]:                         0.000000000000
 CCSD correlation energy [au]:                -0.071733505836
 
 CPU time [min]:   700.827                   Wall time [min]:    23.895
 
 Calculation of (T) correction...
 
 Laplace threshold, nquadmin:  1.00E-02   3
 Number of quadrature points:    3
 
     2280.33 MB memory is utilized for (T)

 0%       25%       50%       75%       100%
 |---------|---------|---------|---------| 
 
 (T) correction [au]:                   -0.008429274927
 CCSD(T) correlation energy [au]:       -0.080162780763
 
 CPU time [min]:   731.353                   Wall time [min]:    24.822
 
 **********************************************************************
 Dimensions of the extended domains:    Minimum / Average / Maximum
 
 Number of atoms in domain:                   4       4.0         4
 Number of atomic orbitals:                 488     488.0       488
 Number of fitting functions:              1444    1444.0      1444
 Number of occupied localized MOs:           13      23.7        38
 Number of PAOs:                            446     446.0       446
 Number of occupied LNOs:                    10      17.8        32
 Number of virtual  LNOs:                    58      86.8       169
 Number of NAFs:                            234     349.8       675
 
 **********************************************************************
 Distant (and weak) pair contributions, corrections
 
 Sum of pair energies [au]:                    -0.000800245741    (0.019%)
 Sum of energy corrections [au]:               -0.053429711710    (1.239%)
 Pair energies + LNO corrections [au]:         -0.054229957451
 Sum of LMP2 contributions [au]:               -4.312607467459
 
 **********************************************************************
  Time of manipulations in the EDs:      max CPU/Wall [s]  all CPU/Wall [min]
 
 PD construction & multipole pair E     198.32     6.18     3.31     0.10
 Construct MO basis of the ED             8.23     0.28     2.00     0.06
 (mu,nu|P) evaluation & trf 2 (ai|P)    184.97     5.15    88.22     2.46
 Evaluate MP2 energy of the ED           18.81     0.52     7.40     0.21
 Transformations to the LNO basis        11.83     0.33     4.37     0.12
 Build W_PQ (Jai or Jpi part)             1.79     0.06     0.67     0.02
 Evaluate MP2 energy of the LIS           1.98     0.06     0.26     0.01
 (mu,nu|P) evaluation & trf 2 J(abQ)    527.58    20.71   209.89     8.35
 Total of the above for all EDs         755.19    27.11   312.82    11.22
 
 **********************************************************************
 Maximum memory requirement [MB]:       
 
 PD construction & multipole pair E         19.5
 AO integral evaluation in the EDs        6191.0
 (mu,nu|P) evaluation & trf 2 (aI|P)      7042.8
 Evaluate MP2 energy in the EDs            499.8
 Transformation to the LNO basis           276.1
 (mu,nu|P) to Jab transformation          6379.2
 Evaluate MP2 energy in the LIS            301.5
 Minimum requirement for LIS CCSD          676.3
 Actually allocated  for LIS CCSD         3747.0
 Minimum requirement for LIS (T)          1127.4
 Actually allocated  for LIS (T)          2280.3
 
 ======================================================================
 ======================================================================
 
 
 
 ======================================================================
 ======================================================================
 
 Final local CC results:
 
 Minimum number of correlated electrons:        20       ( 26.3%)
 Maximum number of correlated electrons:        64       ( 84.2%)
 Average number of correlated electrons:        35.6     ( 46.8%)
 Minimum number of correlated orbitals:         68       ( 13.9%)
 Maximum number of correlated orbitals:        201       ( 41.2%)
 Average number of correlated orbitals:        104.6     ( 21.4%)
 
 CPU time for integral calculations [min]:                  8.469
 Wall time for integral calculations [min]:                 0.531
 
 CPU time for SCF calculation [min]:                       18.329
 Wall time for SCF calculation [min]:                       0.533
 
 CPU time for orbital localization [min]:                   0.185
 Wall time for orbital localization [min]:                  0.025
 
 CPU time for integral transformations [min]:             323.739
 Wall time for integral transformations [min]:             11.571
 
 Reference energy [au]:                                  -784.741225142675
 
 LMP2 correlation energy [au]:                             -4.312607467459
 Total LMP2 energy [au]:                                 -789.053832610134
 
 Total MP2 correction for dropped NAFs [au]:               -0.000177475293
 Total MP2 correction [au]:                                -0.054407432745
 
 CPU time for CCSD calculations [min]:                    290.452
 Total CPU time for CCSD [min]:                           641.174
 Wall time for CCSD calculations [min]:                     9.745
 Total wall time for CCSD [min]:                           22.405
 
 CCSD correlation energy [au]:                             -3.763651934731
 Total CCSD energy [au]:                                 -788.504877077406
 CCSD correlation energy + 0.5 MP2 corrections [au]:       -3.790855651104
 Total LNO-CCSD energy with MP2 corrections [au]:        -788.532080793779
 
 CPU time for (T) corrections [min]:                      117.174
 Total CPU time for CCSD(T) [min]:                        758.348
 Wall time for (T) corrections [min]:                       3.507
 Total wall time for CCSD(T) [min]:                        25.911
 
 Total (T) correlation energy contribution [au]:           -0.155428707665
 Total (T) correlation energy+0.5 MP2 correction [au]:     -0.182632424037
 CCSD(T) correlation energy [au]:                          -3.919080642396
 Total CCSD(T) energy [au]:                              -788.660305785071
 CCSD(T) correlation energy + MP2 corrections [au]:        -3.973488075141
 Total LNO-CCSD(T) energy with MP2 corrections [au]:     -788.714713217816
 
 ======================================================================
 ======================================================================
 
 ************************ 2023-10-21 22:18:13 *************************
                      Normal termination of mrcc.
 **********************************************************************
