 vasp.6.3.0 20Jan22 (build Apr  1 2022 16:44:48) complex                         
 executed on        HPECrayEX_GCC date 2022.12.22  20:52:58
 running 1536 mpi-ranks, with    1 threads/rank
 distrk:  each k-point on  768 cores,    2 groups
 distr:  one band on NCORE=   4 cores,  192 groups


--------------------------------------------------------------------------------------------------------


 INCAR:
   SYSTEM = MgO-rocksalt
   ISMEAR = 0
   SIGMA = 0.05
   EDIFF = 1E-6
   ALGO = ALL
   ISTART = 0
   IBRION = -1
   NSW = 0
   ISYM = 2
   DIPOL = 0.5 0.5 0.5
   IDIPOL = 3
   LDIPOL = .TRUE.
   GGA = PE
   IVDW = 263
   ENCUT = 520
   PREC = Accurate
   LASPH = .TRUE.
   LREAL = Auto
   ISPIN = 1
   NELM = 200
   NELMIN = 8
   NCORE = 4
   KPAR = 2
   LWAVE = .FALSE.
   LCHARG = .FALSE.

 POTCAR:    PAW_PBE Au 04Oct2007                  
 POTCAR:    PAW_PBE Au 04Oct2007                  
   SHA256 =  d0044ae04e2bdce24051b198fc5c053d722a5bc6fe3c3b100514a13fc5d2db88 Au/POTCAR             
   COPYR  = (c) Copyright 04Oct2007 Georg Kresse                                                    
   COPYR  = This file is part of the software VASP. Any use, copying, and all other rights are regul
   COPYR  = If you do not have a valid VASP license, you may not use, copy or distribute this file. 
   VRHFIN =Au: s1d10                                                                                
   LEXCH  = PE                                                                                      
   EATOM  =   926.0867 eV,   68.0654 Ry                                                             
                                                                                                    
   TITEL  = PAW_PBE Au 04Oct2007                                                                    
   LULTRA =        F    use ultrasoft PP ?                                                          
   IUNSCR =        1    unscreen: 0-lin 1-nonlin 2-no                                               
   RPACOR =    2.330    partial core radius                                                         
   POMASS =  196.966; ZVAL   =   11.000    mass and valenz                                          
   RCORE  =    2.500    outmost cutoff radius                                                       
   RWIGS  =    2.840; RWIGS  =    1.503    wigner-seitz radius (au A)                               
   ENMAX  =  229.943; ENMIN  =  172.457 eV                                                          
   ICORE  =        3    local potential                                                             
   LCOR   =        T    correct aug charges                                                         
   LPAW   =        T    paw PP                                                                      
   EAUG   =  356.670                                                                                
   DEXC   =    0.000                                                                                
   RMAX   =    2.562    core radius for proj-oper                                                   
   RAUG   =    1.300    factor for augmentation sphere                                              
   RDEP   =    2.598    radius for radial grids                                                     
   RDEPT  =    2.193    core radius for aug-charge                                                  
                                                                                                    
   Atomic configuration                                                                             
   16 entries                                                                                       
     n  l   j            E        occ.                                                              
     1  0  0.50    -80748.5001   2.0000                                                             
     2  0  0.50    -14244.7466   2.0000                                                             
     2  1  1.50    -12310.9591   6.0000                                                             
     3  0  0.50     -3362.1768   2.0000                                                             
     3  1  1.50     -2801.5463   6.0000                                                             
     3  2  2.50     -2203.8206  10.0000                                                             
     4  0  0.50      -729.8168   2.0000                                                             
     4  1  1.50      -546.0527   6.0000                                                             
     4  2  2.50      -325.7302  10.0000                                                             
     4  3  3.50       -81.1472  14.0000                                                             
     5  0  0.50      -108.3201   2.0000                                                             
     5  1  1.50       -59.7479   6.0000                                                             
     5  2  2.50        -6.8783  10.0000                                                             
     6  0  0.50        -5.7602   1.0000                                                             
     6  1  1.50        -6.8029   0.0000                                                             
     5  3  2.50        -1.3606   0.0000                                                             
   Description                                                                                      
     l       E           TYP  RCUT    TYP  RCUT                                                     
     2     -6.8782861     23  2.500                                                                 
     2     -8.2388687     23  2.500                                                                 
     0     -5.7601759     23  2.500                                                                 
     0     -0.8493231     23  2.500                                                                 
     1     -2.7211652     23  2.500                                                                 
     1     27.2116520     23  2.500                                                                 
     3     -1.3605826     23  2.500                                                                 
  local pseudopotential read in
  partial core-charges read in
  partial kinetic energy density read in
  atomic valenz-charges read in
  non local Contribution for L=           2  read in
    real space projection operators read in
  non local Contribution for L=           2  read in
    real space projection operators read in
  non local Contribution for L=           0  read in
    real space projection operators read in
  non local Contribution for L=           0  read in
    real space projection operators read in
  non local Contribution for L=           1  read in
    real space projection operators read in
  non local Contribution for L=           1  read in
    real space projection operators read in
    PAW grid and wavefunctions read in

   number of l-projection  operators is LMAX  =           6
   number of lm-projection operators is LMMAX =          18

 -----------------------------------------------------------------------------
|                                                                             |
|               ----> ADVICE to this user running VASP <----                  |
|                                                                             |
|     You have a (more or less) 'small supercell' and for smaller cells       |
|     it is recommended to use the reciprocal-space projection scheme!        |
|     The real-space optimization is not efficient for small cells and it     |
|     is also less accurate ...                                               |
|     Therefore, set LREAL=.FALSE. in the INCAR file.                         |
|                                                                             |
 -----------------------------------------------------------------------------

 Optimization of the real space projectors (new method)

 maximal supplied QI-value         = 15.12
 optimisation between [QCUT,QGAM] = [ 11.64, 23.28] = [ 37.95,151.78] Ry 
 Optimized for a Real-space Cutoff    1.49 Angstroem

   l    n(q)    QCUT    max X(q) W(low)/X(q) W(high)/X(q)  e(spline) 
   2      9    11.641    60.898    0.24E-03    0.10E-03    0.19E-06
   2      9    11.641    58.894    0.25E-03    0.10E-03    0.19E-06
   0     10    11.641   109.617    0.73E-04    0.33E-04    0.11E-06
   0     10    11.641    75.026    0.71E-04    0.32E-04    0.11E-06
   1     10    11.641    16.344    0.27E-04    0.97E-04    0.16E-06
   1     10    11.641    10.160    0.23E-04    0.77E-04    0.13E-06
  PAW_PBE Au 04Oct2007                  :
 energy of atom  1       EATOM= -926.0867
 kinetic energy error for atom=    0.0034 (will be added to EATOM!!)


 POSCAR: Au
  positions in direct lattice
  No initial velocities read in
 exchange correlation table for  LEXCH =        8
   RHO(1)=    0.500       N(1)  =     2000
   RHO(2)=  100.500       N(2)  =     4000



--------------------------------------------------------------------------------------------------------


 ion  position               nearest neighbor table
   1  0.500  0.500  0.713-   2 2.50
   2  0.500  0.500  0.600-   1 2.50

  LATTYP: Found a simple tetragonal cell.
 ALAT       =    21.1388521970
 C/A-ratio  =     1.0461251639
  
  Lattice vectors:
  
 A1 = (  21.1388521970,   0.0000000000,   0.0000000000)
 A2 = (   0.0000000000,  21.1388521970,   0.0000000000)
 A3 = (   0.0000000000,   0.0000000000,  22.1138852197)


Analysis of symmetry for initial positions (statically):
=====================================================================
 Subroutine PRICEL returns:
 Original cell was already a primitive cell.
 

 Routine SETGRP: Setting up the symmetry group for a 
 simple tetragonal supercell.


 Subroutine GETGRP returns: Found 16 space group operations
 (whereof  8 operations were pure point group operations)
 out of a pool of 16 trial point group operations.


The static configuration has the point symmetry C_4v.
 The point group associated with its full space group is D_4h.


Analysis of symmetry for dynamics (positions and initial velocities):
=====================================================================
 Subroutine PRICEL returns:
 Original cell was already a primitive cell.
 

 Routine SETGRP: Setting up the symmetry group for a 
 simple tetragonal supercell.


 Subroutine GETGRP returns: Found 16 space group operations
 (whereof  8 operations were pure point group operations)
 out of a pool of 16 trial point group operations.


The dynamic configuration has the point symmetry C_4v.
 The point group associated with its full space group is D_4h.


 Subroutine INISYM returns: Found 16 space group operations
 (whereof  8 operations are pure point group operations),
 and found     1 'primitive' translations


----------------------------------------------------------------------------------------

                                     Primitive cell                                     

  volume of cell :    9881.6133

  direct lattice vectors                    reciprocal lattice vectors
    21.138852197  0.000000000  0.000000000     0.047306258  0.000000000  0.000000000
     0.000000000 21.138852197  0.000000000     0.000000000  0.047306258  0.000000000
     0.000000000  0.000000000 22.113885220     0.000000000  0.000000000  0.045220457

  length of vectors
    21.138852197 21.138852197 22.113885220     0.047306258  0.047306258  0.045220457

  position of ions in fractional coordinates (direct lattice)
     0.500000000  0.500000000  0.712728728
     0.500000000  0.500000000  0.599827943

  ion indices of the primitive-cell ions
   primitive index   ion index
                 1           1
                 2           2

----------------------------------------------------------------------------------------



 KPOINTS: KPOINTS created by Atomic Simulation Env

Automatic generation of k-mesh.
 Grid dimensions read from file:
 generate k-points for:    4    4    1

 Generating k-lattice:

  Cartesian coordinates                     Fractional coordinates (reciprocal lattice)
     0.011826565  0.000000000  0.000000000     0.250000000  0.000000000  0.000000000
     0.000000000  0.011826565  0.000000000     0.000000000  0.250000000  0.000000000
     0.000000000  0.000000000  0.045220457     0.000000000  0.000000000  1.000000000

  Length of vectors
     0.011826565  0.011826565  0.045220457

  Shift w.r.t. Gamma in fractional coordinates (k-lattice)
     0.500000000  0.500000000  0.000000000

 
 Subroutine IBZKPT returns following result:
 ===========================================
 
 Found      3 irreducible k-points:
 
 Following reciprocal coordinates:
            Coordinates               Weight
  0.125000  0.125000  0.000000      4.000000
  0.375000  0.125000  0.000000      8.000000
  0.375000  0.375000  0.000000      4.000000
 
 Following cartesian coordinates:
            Coordinates               Weight
  0.005913  0.005913  0.000000      4.000000
  0.017740  0.005913  0.000000      8.000000
  0.017740  0.017740  0.000000      4.000000
 


--------------------------------------------------------------------------------------------------------




 Dimension of arrays:
   k-points           NKPTS =      3   k-points in BZ     NKDIM =      3   number of bands    NBANDS=    192
   number of dos      NEDOS =    301   number of ions     NIONS =      2
   non local maximal  LDIM  =      6   non local SUM 2l+1 LMDIM =     18
   total plane-waves  NPLWV = ******
   max r-space proj   IRMAX =   6070   max aug-charges    IRDMAX=  26812
   dimension x,y,z NGX =   160 NGY =  160 NGZ =  168
   dimension x,y,z NGXF=   320 NGYF=  320 NGZF=  336
   support grid    NGXF=   320 NGYF=  320 NGZF=  336
   ions per type =               2
   NGX,Y,Z   is equivalent  to a cutoff of  12.58, 12.58, 12.63 a.u.
   NGXF,Y,Z  is equivalent  to a cutoff of  25.17, 25.17, 25.26 a.u.

 SYSTEM =  MgO-rocksalt                            
 POSCAR =  Au                                      

 Startparameter for this run:
   NWRITE =      2    write-flag & timer
   PREC   = accura    normal or accurate (medium, high low for compatibility)
   ISTART =      0    job   : 0-new  1-cont  2-samecut
   ICHARG =      2    charge: 1-file 2-atom 10-const
   ISPIN  =      1    spin polarized calculation?
   LNONCOLLINEAR =      F non collinear calculations
   LSORBIT =      F    spin-orbit coupling
   INIWAV =      1    electr: 0-lowe 1-rand  2-diag
   LASPH  =      T    aspherical Exc in radial PAW
 Electronic Relaxation 1
   ENCUT  =  520.0 eV  38.22 Ry    6.18 a.u.  39.30 39.30 41.12*2*pi/ulx,y,z
   ENINI  =  520.0     initial cutoff
   ENAUG  =  356.7 eV  augmentation charge cutoff
   NELM   =    200;   NELMIN=  8; NELMDL= -5     # of ELM steps 
   EDIFF  = 0.1E-05   stopping-criterion for ELM
   LREAL  =      T    real-space projection
   NLSPLINE    = F    spline interpolate recip. space projectors
   LCOMPAT=      F    compatible to vasp.4.4
   GGA_COMPAT  = T    GGA compatible to vasp.4.4-vasp.4.6
   LMAXPAW     = -100 max onsite density
   LMAXMIX     =    2 max onsite mixed and CHGCAR
   VOSKOWN=      0    Vosko Wilk Nusair interpolation
   ROPT   =   -0.00025
 Ionic relaxation
   EDIFFG = 0.1E-04   stopping-criterion for IOM
   NSW    =      0    number of steps for IOM
   NBLOCK =      1;   KBLOCK =      1    inner block; outer block 
   IBRION =     -1    ionic relax: 0-MD 1-quasi-New 2-CG
   NFREE  =      0    steps in history (QN), initial steepest desc. (CG)
   ISIF   =      2    stress and relaxation
   IWAVPR =     10    prediction:  0-non 1-charg 2-wave 3-comb
   ISYM   =      2    0-nonsym 1-usesym 2-fastsym
   LCORR  =      T    Harris-Foulkes like correction to forces

   POTIM  = 0.5000    time-step for ionic-motion
   TEIN   =    0.0    initial temperature
   TEBEG  =    0.0;   TEEND  =   0.0 temperature during run
   SMASS  =  -3.00    Nose mass-parameter (am)
   estimated Nose-frequenzy (Omega)   =  0.10E-29 period in steps = 0.13E+47 mass=  -0.102E-25a.u.
   SCALEE = 1.0000    scale energy and forces
   NPACO  =    256;   APACO  = 10.0  distance and # of slots for P.C.
   PSTRESS=    0.0 pullay stress

  Mass of Ions in am
   POMASS = 196.97
  Ionic Valenz
   ZVAL   =  11.00
  Atomic Wigner-Seitz radii
   RWIGS  =  -1.00
  virtual crystal weights 
   VCA    =   1.00
   NELECT =      22.0000    total number of electrons
   NUPDOWN=      -1.0000    fix difference up-down

 DOS related values:
   EMIN   =  10.00;   EMAX   =-10.00  energy-range for DOS
   EFERMI =   0.00
   ISMEAR =     0;   SIGMA  =   0.05  broadening in eV -4-tet -1-fermi 0-gaus

 Electronic relaxation 2 (details)
   IALGO  =     58    algorithm
   LDIAG  =      T    sub-space diagonalisation (order eigenvalues)
   LSUBROT=      F    optimize rotation matrix (better conditioning)
   TURBO    =      0    0=normal 1=particle mesh
   IRESTART =      0    0=no restart 2=restart with 2 vectors
   NREBOOT  =      0    no. of reboots
   NMIN     =      0    reboot dimension
   EREF     =   0.00    reference energy to select bands
   IMIX   =      4    mixing-type and parameters
     AMIX     =   0.40;   BMIX     =  1.00
     AMIX_MAG =   1.60;   BMIX_MAG =  1.00
     AMIN     =   0.10
     WC   =   100.;   INIMIX=   1;  MIXPRE=   1;  MAXMIX= -45

 Intra band minimization:
   WEIMIN = 0.0000     energy-eigenvalue tresh-hold
   EBREAK =  0.13E-08  absolut break condition
   DEPER  =   0.30     relativ break condition  

   TIME   =   0.40     timestep for ELM

  volume/ion in A,a.u.               =    4940.81     33342.21
  Fermi-wavevector in a.u.,A,eV,Ry     =   0.213767  0.403960  0.621734  0.045696
  Thomas-Fermi vector in A             =   0.985879

 Write flags
   LWAVE        =      F    write WAVECAR
   LDOWNSAMPLE  =      F    k-point downsampling of WAVECAR
   LCHARG       =      F    write CHGCAR
   LVTOT        =      F    write LOCPOT, total local potential
   LVHAR        =      F    write LOCPOT, Hartree potential only
   LELF         =      F    write electronic localiz. function (ELF)
   LORBIT       =      0    0 simple, 1 ext, 2 COOP (PROOUT), +10 PAW based schemes


 Dipole corrections
   LMONO  =      F    monopole corrections only (constant potential shift)
   LDIPOL =      T    correct potential (dipole corrections)
   IDIPOL =      3    1-x, 2-y, 3-z, 4-all directions 
   EPSILON=  1.0000000 bulk dielectric constant

 Exchange correlation treatment:
   GGA     =    PE    GGA type
   LEXCH   =     8    internal setting for exchange type
   LIBXC   =     F    Libxc                    
   VOSKOWN =     0    Vosko Wilk Nusair interpolation
   LHFCALC =     F    Hartree Fock is set to
   LHFONE  =     F    Hartree Fock one center treatment
   AEXX    =    0.0000 exact exchange contribution

 Linear response parameters
   LEPSILON=     F    determine dielectric tensor
   LRPA    =     F    only Hartree local field effects (RPA)
   LNABLA  =     F    use nabla operator in PAW spheres
   LVEL    =     F    velocity operator in full k-point grid
   CSHIFT  =0.1000    complex shift for real part using Kramers Kronig
   OMEGAMAX=  -1.0    maximum frequency
   DEG_THRESHOLD= 0.2000000E-02 threshold for treating states as degnerate
   RTIME   =   -0.100 relaxation time in fs
  (WPLASMAI=    0.000 imaginary part of plasma frequency in eV, 0.658/RTIME)
   DFIELD  = 0.0000000 0.0000000 0.0000000 field for delta impulse in time

  Optional k-point grid parameters
   LKPOINTS_OPT  =     F    use optional k-point grid
   KPOINTS_OPT_MODE=     1    mode for optional k-point grid

 Orbital magnetization related:
   ORBITALMAG=     F  switch on orbital magnetization
   LCHIMAG   =     F  perturbation theory with respect to B field
   DQ        =  0.001000  dq finite difference perturbation B field
   LLRAUG    =     F  two centre corrections for induced B field



--------------------------------------------------------------------------------------------------------


 Static calculation
 charge density and potential will be updated during run
 non-spin polarized calculation
 Conjugate gradient for all bands (Freysoldt, et al. PRB 79, 241103 (2009))
 preconditioned conjugated gradient                                        
 perform sub-space diagonalisation
    before iterative eigenvector-optimisation
 modified Broyden-mixing scheme, WC =      100.0
 initial mixing is a Kerker type mixing with AMIX =  0.4000 and BMIX =      1.0000
 Hartree-type preconditioning will be used
 using additional bands          181
 real space projection scheme for non local part
 use partial core corrections
 no Harris-corrections to forces 
 use gradient corrections 
 use of overlap-Matrix (Vanderbilt PP)
 Gauss-broadening in eV      SIGMA  =   0.05


--------------------------------------------------------------------------------------------------------


  energy-cutoff  :      520.00
  volume of cell :     9881.61
      direct lattice vectors                 reciprocal lattice vectors
    21.138852197  0.000000000  0.000000000     0.047306258  0.000000000  0.000000000
     0.000000000 21.138852197  0.000000000     0.000000000  0.047306258  0.000000000
     0.000000000  0.000000000 22.113885220     0.000000000  0.000000000  0.045220457

  length of vectors
    21.138852197 21.138852197 22.113885220     0.047306258  0.047306258  0.045220457



 k-points in units of 2pi/SCALE and weight: KPOINTS created by Atomic Simulation Env
   0.00591328  0.00591328  0.00000000       0.250
   0.01773985  0.00591328  0.00000000       0.500
   0.01773985  0.01773985  0.00000000       0.250

 k-points in reciprocal lattice and weights: KPOINTS created by Atomic Simulation Env
   0.12500000  0.12500000  0.00000000       0.250
   0.37500000  0.12500000  0.00000000       0.500
   0.37500000  0.37500000  0.00000000       0.250

 position of ions in fractional coordinates (direct lattice) 
   0.50000000  0.50000000  0.71272873
   0.50000000  0.50000000  0.59982794

 position of ions in cartesian coordinates  (Angst):
  10.56942610 10.56942610 15.76120128
  10.56942610 10.56942610 13.26452628



--------------------------------------------------------------------------------------------------------


 k-point   1 :   0.1250 0.1250 0.0000  plane waves:  265995
 k-point   2 :   0.3750 0.1250 0.0000  plane waves:  266023
 k-point   3 :   0.3750 0.3750 0.0000  plane waves:  266046

 maximum and minimum number of plane-waves per node :     66522    66466

 maximum number of plane-waves:    266046
 maximum index in each direction: 
   IXMAX=   39   IYMAX=   39   IZMAX=   41
   IXMIN=  -39   IYMIN=  -39   IZMIN=  -41


 real space projection operators:
  total allocation   :       1638.56 KBytes
  max/ min on nodes  :        413.44        407.53


 parallel 3D FFT for wavefunctions:
    minimum data exchange during FFTs selected (reduces bandwidth)
 parallel 3D FFT for charge:
    minimum data exchange during FFTs selected (reduces bandwidth)


 total amount of memory used by VASP MPI-rank0   123846. kBytes
=======================================================================

   base      :      30000. kBytes
   nonlr-proj:        708. kBytes
   fftplans  :      35211. kBytes
   grid      :      48291. kBytes
   one-center:         15. kBytes
   wavefun   :       9621. kBytes

     INWAV:  cpu time      0.0001: real time      0.0004
 Broyden mixing: mesh for mixing (old mesh)
   NGX = 79   NGY = 79   NGZ = 83
  (NGX  =320   NGY  =320   NGZ  =336)
  gives a total of 518003 points

 initial charge density was supplied:
 charge density of overlapping atoms calculated
 number of electron      22.0000000 magnetization 
 keeping initial charge density in first step


--------------------------------------------------------------------------------------------------------


 Maximum index for non-local projection operator         1460
 Maximum index for augmentation-charges            0 (set IRDMAX)


--------------------------------------------------------------------------------------------------------


 First call to EWALD:  gamma=   0.083
 Maximum number of real-space cells 3x 3x 3
 Maximum number of reciprocal cells 3x 3x 3

    FEWALD:  cpu time      0.0018: real time      0.0018


--------------------------------------- Iteration      1(   1)  ---------------------------------------


    POTLOK:  cpu time      0.2004: real time      0.2012
    SETDIJ:  cpu time      0.1824: real time      0.1825
    TRIAL :  cpu time      3.8499: real time      3.8514
    CORREC:  cpu time      0.0017: real time      0.0017
    --------------------------------------------
      LOOP:  cpu time      4.2389: real time      4.2415

 eigenvalue-minimisations  :  1152
 total energy-change (2. order) : 0.1396221E+03  (-0.5380752E+03)
 number of electron      22.0000000 magnetization 
 augmentation part       22.0000000 magnetization 

 DIPCOR: dipole corrections for dipol
 direction  3 min pos     1,
 dipolmoment           0.000000      0.000000     -0.000028 electrons x Angstroem
 Tr[quadrupol]     -4914.753109

 energy correction for charged system         0.000000 eV
 dipol+quadrupol energy correction           -0.000000 eV
 added-field ion interaction          0.000043 eV  (added to PSCEN)


 Free energy of the ion-electron system (eV)
  ---------------------------------------------------
  alpha Z        PSCENC =         0.47154293
  Ewald energy   TEWEN  =       239.48017023
  -Hartree energ DENC   =     -2012.96195058
  -exchange      EXHF   =         0.00000000
  -V(xc)+E(xc)   XCENC  =        28.05121303
  PAW double counting   =      1748.19500671    -1702.02026965
  entropy T*S    EENTRO =        -0.05515997
  eigenvalues    EBANDS =       -13.70508635
  atomic energy  EATOM  =      1852.16664478
  ---------------------------------------------------
  free energy    TOTEN  =       139.62211113 eV

  energy without entropy =      139.67727110  energy(sigma->0) =      139.64969112


--------------------------------------------------------------------------------------------------------




--------------------------------------- Iteration      1(   2)  ---------------------------------------


    TRIAL :  cpu time     21.4967: real time     21.4985
    CORREC:  cpu time      0.0005: real time      0.0005
    --------------------------------------------
      LOOP:  cpu time     21.5059: real time     21.5178

 eigenvalue-minimisations  :  2304
 total energy-change (2. order) :-0.1418413E+03  (-0.1403113E+03)
 number of electron      22.0000000 magnetization 
 augmentation part       22.0000000 magnetization 

 DIPCOR: dipole corrections for dipol
 direction  3 min pos     1,
 dipolmoment           0.000000      0.000000     -0.000028 electrons x Angstroem
 Tr[quadrupol]     -4914.753109

 energy correction for charged system         0.000000 eV
 dipol+quadrupol energy correction           -0.000000 eV
 added-field ion interaction          0.000043 eV  (added to PSCEN)


 Free energy of the ion-electron system (eV)
  ---------------------------------------------------
  alpha Z        PSCENC =         0.47154293
  Ewald energy   TEWEN  =       239.48017023
  -Hartree energ DENC   =     -2012.96195058
  -exchange      EXHF   =         0.00000000
  -V(xc)+E(xc)   XCENC  =        28.05121303
  PAW double counting   =      1748.19500671    -1702.02026965
  entropy T*S    EENTRO =        -0.00000000
  eigenvalues    EBANDS =      -155.60157818
  atomic energy  EATOM  =      1852.16664478
  ---------------------------------------------------
  free energy    TOTEN  =        -2.21922073 eV

  energy without entropy =       -2.21922073  energy(sigma->0) =       -2.21922073


--------------------------------------------------------------------------------------------------------




--------------------------------------- Iteration      1(   3)  ---------------------------------------


    TRIAL :  cpu time      4.0769: real time      4.0771
    CORREC:  cpu time      0.0004: real time      0.0004
    --------------------------------------------
      LOOP:  cpu time      4.0836: real time      4.0933

 eigenvalue-minimisations  :  1152
 total energy-change (2. order) :-0.8748429E+00  (-0.8748429E+00)
 number of electron      22.0000000 magnetization 
 augmentation part       22.0000000 magnetization 

 DIPCOR: dipole corrections for dipol
 direction  3 min pos     1,
 dipolmoment           0.000000      0.000000     -0.000028 electrons x Angstroem
 Tr[quadrupol]     -4914.753109

 energy correction for charged system         0.000000 eV
 dipol+quadrupol energy correction           -0.000000 eV
 added-field ion interaction          0.000043 eV  (added to PSCEN)


 Free energy of the ion-electron system (eV)
  ---------------------------------------------------
  alpha Z        PSCENC =         0.47154293
  Ewald energy   TEWEN  =       239.48017023
  -Hartree energ DENC   =     -2012.96195058
  -exchange      EXHF   =         0.00000000
  -V(xc)+E(xc)   XCENC  =        28.05121303
  PAW double counting   =      1748.19500671    -1702.02026965
  entropy T*S    EENTRO =        -0.00000000
  eigenvalues    EBANDS =      -156.47642109
  atomic energy  EATOM  =      1852.16664478
  ---------------------------------------------------
  free energy    TOTEN  =        -3.09406364 eV

  energy without entropy =       -3.09406364  energy(sigma->0) =       -3.09406364


--------------------------------------------------------------------------------------------------------




--------------------------------------- Iteration      1(   4)  ---------------------------------------


    TRIAL :  cpu time     20.6551: real time     20.6570
    CORREC:  cpu time      0.0004: real time      0.0004
    --------------------------------------------
      LOOP:  cpu time     20.6703: real time     20.6726

 eigenvalue-minimisations  :  2304
 total energy-change (2. order) :-0.2075658E-02  (-0.2075658E-02)
 number of electron      22.0000000 magnetization 
 augmentation part       22.0000000 magnetization 

 DIPCOR: dipole corrections for dipol
 direction  3 min pos     1,
 dipolmoment           0.000000      0.000000     -0.000028 electrons x Angstroem
 Tr[quadrupol]     -4914.753109

 energy correction for charged system         0.000000 eV
 dipol+quadrupol energy correction           -0.000000 eV
 added-field ion interaction          0.000043 eV  (added to PSCEN)


 Free energy of the ion-electron system (eV)
  ---------------------------------------------------
  alpha Z        PSCENC =         0.47154293
  Ewald energy   TEWEN  =       239.48017023
  -Hartree energ DENC   =     -2012.96195058
  -exchange      EXHF   =         0.00000000
  -V(xc)+E(xc)   XCENC  =        28.05121303
  PAW double counting   =      1748.19500671    -1702.02026965
  entropy T*S    EENTRO =        -0.00000000
  eigenvalues    EBANDS =      -156.47849675
  atomic energy  EATOM  =      1852.16664478
  ---------------------------------------------------
  free energy    TOTEN  =        -3.09613929 eV

  energy without entropy =       -3.09613929  energy(sigma->0) =       -3.09613929


--------------------------------------------------------------------------------------------------------




--------------------------------------- Iteration      1(   5)  ---------------------------------------


    TRIAL :  cpu time      4.0509: real time      4.0511
    CORREC:  cpu time      0.0004: real time      0.0004
    CHARGE:  cpu time      0.7997: real time      0.8006
    --------------------------------------------
      LOOP:  cpu time      4.8561: real time      4.8674

 eigenvalue-minimisations  :  1152
 total energy-change (2. order) :-0.2333286E-07  (-0.2214851E-07)
 number of electron      22.0000005 magnetization 
 augmentation part        8.0202564 magnetization 

 DIPCOR: dipole corrections for dipol
 direction  3 min pos     1,
 dipolmoment           0.000000      0.000000     -0.000028 electrons x Angstroem
 Tr[quadrupol]     -4914.753109

 energy correction for charged system         0.000000 eV
 dipol+quadrupol energy correction           -0.000000 eV
 added-field ion interaction          0.000043 eV  (added to PSCEN)


 Free energy of the ion-electron system (eV)
  ---------------------------------------------------
  alpha Z        PSCENC =         0.47154293
  Ewald energy   TEWEN  =       239.48017023
  -Hartree energ DENC   =     -2012.96195058
  -exchange      EXHF   =         0.00000000
  -V(xc)+E(xc)   XCENC  =        28.05121303
  PAW double counting   =      1748.19500671    -1702.02026965
  entropy T*S    EENTRO =        -0.00000000
  eigenvalues    EBANDS =      -156.47849677
  atomic energy  EATOM  =      1852.16664478
  ---------------------------------------------------
  free energy    TOTEN  =        -3.09613932 eV

  energy without entropy =       -3.09613932  energy(sigma->0) =       -3.09613932


--------------------------------------------------------------------------------------------------------




--------------------------------------- Iteration      1(   6)  ---------------------------------------


    POTLOK:  cpu time      0.1630: real time      0.1630
    SETDIJ:  cpu time      0.1743: real time      0.1743
    TRIAL :  cpu time     17.7074: real time     17.8802
    CORREC:  cpu time      1.3042: real time      1.3045
    CHARGE:  cpu time      0.6026: real time      0.6027
    --------------------------------------------
      LOOP:  cpu time     19.9665: real time     20.1398

 eigenvalue-minimisations  :     0
 total energy-change (2. order) : 0.8728100E+00  (-0.3938757E+00)
 number of electron      22.0000005 magnetization 
 augmentation part        8.1560203 magnetization 

 DIPCOR: dipole corrections for dipol
 direction  3 min pos     1,
 dipolmoment           0.000000      0.000000     -0.001040 electrons x Angstroem
 Tr[quadrupol]     -4916.782017

 energy correction for charged system         0.000000 eV
 dipol+quadrupol energy correction           -0.000000 eV
 added-field ion interaction          0.001565 eV  (added to PSCEN)


 Free energy of the ion-electron system (eV)
  ---------------------------------------------------
  alpha Z        PSCENC =         0.47150172
  Ewald energy   TEWEN  =       239.48017023
  -Hartree energ DENC   =     -2007.97100560
  -exchange      EXHF   =         0.00000000
  -V(xc)+E(xc)   XCENC  =        27.58080919
  PAW double counting   =      1871.97051678    -1828.40806331
  entropy T*S    EENTRO =        -0.00000000
  eigenvalues    EBANDS =      -157.51390307
  atomic energy  EATOM  =      1852.16664478
  ---------------------------------------------------
  free energy    TOTEN  =        -2.22332927 eV

  energy without entropy =       -2.22332927  energy(sigma->0) =       -2.22332927


--------------------------------------------------------------------------------------------------------




--------------------------------------- Iteration      1(   7)  ---------------------------------------


    POTLOK:  cpu time      0.1542: real time      0.1542
    SETDIJ:  cpu time      0.1707: real time      0.1707
    TRIAL :  cpu time      0.6568: real time      0.6568
    CORREC:  cpu time      1.2119: real time      1.2119
    CHARGE:  cpu time      0.5969: real time      0.5970
    --------------------------------------------
      LOOP:  cpu time      2.7958: real time      2.8080

 eigenvalue-minimisations  :     0
 total energy-change (2. order) :-0.3941356E+00  (-0.6923442E-01)
 number of electron      22.0000005 magnetization 
 augmentation part        8.1363101 magnetization 

 DIPCOR: dipole corrections for dipol
 direction  3 min pos     1,
 dipolmoment           0.000000      0.000000     -0.000547 electrons x Angstroem
 Tr[quadrupol]     -4916.517902

 energy correction for charged system         0.000000 eV
 dipol+quadrupol energy correction           -0.000000 eV
 added-field ion interaction          0.000823 eV  (added to PSCEN)


 Free energy of the ion-electron system (eV)
  ---------------------------------------------------
  alpha Z        PSCENC =         0.47342750
  Ewald energy   TEWEN  =       239.48017023
  -Hartree energ DENC   =     -2015.99483252
  -exchange      EXHF   =         0.00000000
  -V(xc)+E(xc)   XCENC  =        28.00506639
  PAW double counting   =      1882.94710945    -1838.97501860
  entropy T*S    EENTRO =        -0.00000000
  eigenvalues    EBANDS =      -150.72003207
  atomic energy  EATOM  =      1852.16664478
  ---------------------------------------------------
  free energy    TOTEN  =        -2.61746483 eV

  energy without entropy =       -2.61746483  energy(sigma->0) =       -2.61746483


--------------------------------------------------------------------------------------------------------




--------------------------------------- Iteration      1(   8)  ---------------------------------------


    POTLOK:  cpu time      0.1519: real time      0.1520
    SETDIJ:  cpu time      0.1763: real time      0.1763
    TRIAL :  cpu time      0.6471: real time      0.6471
    CORREC:  cpu time      1.2017: real time      1.2018
    CHARGE:  cpu time      0.5941: real time      0.5941
    --------------------------------------------
      LOOP:  cpu time      2.7867: real time      2.7872

 eigenvalue-minimisations  :     0
 total energy-change (2. order) :-0.6829484E-01  (-0.1931585E-01)
 number of electron      22.0000005 magnetization 
 augmentation part        8.1686218 magnetization 

 DIPCOR: dipole corrections for dipol
 direction  3 min pos     1,
 dipolmoment           0.000000      0.000000     -0.000036 electrons x Angstroem
 Tr[quadrupol]     -4916.341973

 energy correction for charged system         0.000000 eV
 dipol+quadrupol energy correction           -0.000000 eV
 added-field ion interaction          0.000054 eV  (added to PSCEN)


 Free energy of the ion-electron system (eV)
  ---------------------------------------------------
  alpha Z        PSCENC =         0.47183160
  Ewald energy   TEWEN  =       239.48017023
  -Hartree energ DENC   =     -2008.81204836
  -exchange      EXHF   =         0.00000000
  -V(xc)+E(xc)   XCENC  =        27.79707319
  PAW double counting   =      1869.81577429    -1825.73591909
  entropy T*S    EENTRO =        -0.00000000
  eigenvalues    EBANDS =      -157.86928632
  atomic energy  EATOM  =      1852.16664478
  ---------------------------------------------------
  free energy    TOTEN  =        -2.68575967 eV

  energy without entropy =       -2.68575967  energy(sigma->0) =       -2.68575967


--------------------------------------------------------------------------------------------------------




--------------------------------------- Iteration      1(   9)  ---------------------------------------


    POTLOK:  cpu time      0.1503: real time      0.1504
    SETDIJ:  cpu time      0.1731: real time      0.1735
    TRIAL :  cpu time      0.6455: real time      0.6455
    CORREC:  cpu time      1.2073: real time      1.2075
    CHARGE:  cpu time      0.5930: real time      0.5931
    --------------------------------------------
      LOOP:  cpu time      2.7762: real time      2.7863

 eigenvalue-minimisations  :     0
 total energy-change (2. order) :-0.1932881E-01  (-0.5352033E-02)
 number of electron      22.0000005 magnetization 
 augmentation part        8.1672311 magnetization 

 DIPCOR: dipole corrections for dipol
 direction  3 min pos     1,
 dipolmoment           0.000000      0.000000     -0.000007 electrons x Angstroem
 Tr[quadrupol]     -4916.310271

 energy correction for charged system         0.000000 eV
 dipol+quadrupol energy correction           -0.000000 eV
 added-field ion interaction          0.000011 eV  (added to PSCEN)


 Free energy of the ion-electron system (eV)
  ---------------------------------------------------
  alpha Z        PSCENC =         0.47155408
  Ewald energy   TEWEN  =       239.48017023
  -Hartree energ DENC   =     -2013.37992468
  -exchange      EXHF   =         0.00000000
  -V(xc)+E(xc)   XCENC  =        27.93558010
  PAW double counting   =      1876.93384922    -1832.72271872
  entropy T*S    EENTRO =        -0.00000000
  eigenvalues    EBANDS =      -153.59024350
  atomic energy  EATOM  =      1852.16664478
  ---------------------------------------------------
  free energy    TOTEN  =        -2.70508848 eV

  energy without entropy =       -2.70508848  energy(sigma->0) =       -2.70508848


--------------------------------------------------------------------------------------------------------




--------------------------------------- Iteration      1(  10)  ---------------------------------------


    POTLOK:  cpu time      0.1451: real time      0.1451
    SETDIJ:  cpu time      0.1791: real time      0.1791
    TRIAL :  cpu time      0.6424: real time      0.6425
    CORREC:  cpu time      1.1946: real time      1.1947
    CHARGE:  cpu time      0.5930: real time      0.5931
    --------------------------------------------
      LOOP:  cpu time      2.7625: real time      2.7725

 eigenvalue-minimisations  :     0
 total energy-change (2. order) :-0.5352765E-02  (-0.1003075E-02)
 number of electron      22.0000005 magnetization 
 augmentation part        8.1671156 magnetization 

 DIPCOR: dipole corrections for dipol
 direction  3 min pos     1,
 dipolmoment           0.000000      0.000000     -0.000002 electrons x Angstroem
 Tr[quadrupol]     -4916.282058

 energy correction for charged system         0.000000 eV
 dipol+quadrupol energy correction           -0.000000 eV
 added-field ion interaction          0.000003 eV  (added to PSCEN)


 Free energy of the ion-electron system (eV)
  ---------------------------------------------------
  alpha Z        PSCENC =         0.47150906
  Ewald energy   TEWEN  =       239.48017023
  -Hartree energ DENC   =     -2012.74751919
  -exchange      EXHF   =         0.00000000
  -V(xc)+E(xc)   XCENC  =        27.91529582
  PAW double counting   =      1875.31226513    -1831.04478183
  entropy T*S    EENTRO =        -0.00000000
  eigenvalues    EBANDS =      -154.26402525
  atomic energy  EATOM  =      1852.16664478
  ---------------------------------------------------
  free energy    TOTEN  =        -2.71044124 eV

  energy without entropy =       -2.71044124  energy(sigma->0) =       -2.71044124


--------------------------------------------------------------------------------------------------------




--------------------------------------- Iteration      1(  11)  ---------------------------------------


    POTLOK:  cpu time      0.1463: real time      0.1463
    SETDIJ:  cpu time      0.1823: real time      0.1823
    TRIAL :  cpu time      0.6445: real time      0.6446
    CORREC:  cpu time      1.1944: real time      1.1945
    CHARGE:  cpu time      0.6012: real time      0.6013
    --------------------------------------------
      LOOP:  cpu time      2.7756: real time      2.7857

 eigenvalue-minimisations  :     0
 total energy-change (2. order) :-0.1004027E-02  (-0.1543143E-03)
 number of electron      22.0000005 magnetization 
 augmentation part        8.1694485 magnetization 

 DIPCOR: dipole corrections for dipol
 direction  3 min pos     1,
 dipolmoment           0.000000      0.000000     -0.000002 electrons x Angstroem
 Tr[quadrupol]     -4916.278544

 energy correction for charged system         0.000000 eV
 dipol+quadrupol energy correction           -0.000000 eV
 added-field ion interaction          0.000003 eV  (added to PSCEN)


 Free energy of the ion-electron system (eV)
  ---------------------------------------------------
  alpha Z        PSCENC =         0.47150545
  Ewald energy   TEWEN  =       239.48017023
  -Hartree energ DENC   =     -2012.59647195
  -exchange      EXHF   =         0.00000000
  -V(xc)+E(xc)   XCENC  =        27.91073289
  PAW double counting   =      1874.28524419    -1830.00573843
  entropy T*S    EENTRO =        -0.00000000
  eigenvalues    EBANDS =      -154.42353242
  atomic energy  EATOM  =      1852.16664478
  ---------------------------------------------------
  free energy    TOTEN  =        -2.71144527 eV

  energy without entropy =       -2.71144527  energy(sigma->0) =       -2.71144527


--------------------------------------------------------------------------------------------------------




--------------------------------------- Iteration      1(  12)  ---------------------------------------


    POTLOK:  cpu time      0.1409: real time      0.1409
    SETDIJ:  cpu time      0.1782: real time      0.1782
    TRIAL :  cpu time      0.6411: real time      0.6411
    CORREC:  cpu time      1.1913: real time      1.1923
    CHARGE:  cpu time      0.6011: real time      0.6011
    --------------------------------------------
      LOOP:  cpu time      2.7581: real time      2.7691

 eigenvalue-minimisations  :     0
 total energy-change (2. order) :-0.1533635E-03  (-0.3073780E-04)
 number of electron      22.0000005 magnetization 
 augmentation part        8.1684650 magnetization 

 DIPCOR: dipole corrections for dipol
 direction  3 min pos     1,
 dipolmoment           0.000000      0.000000     -0.000001 electrons x Angstroem
 Tr[quadrupol]     -4916.276285

 energy correction for charged system         0.000000 eV
 dipol+quadrupol energy correction           -0.000000 eV
 added-field ion interaction          0.000002 eV  (added to PSCEN)


 Free energy of the ion-electron system (eV)
  ---------------------------------------------------
  alpha Z        PSCENC =         0.47150285
  Ewald energy   TEWEN  =       239.48017023
  -Hartree energ DENC   =     -2012.91516747
  -exchange      EXHF   =         0.00000000
  -V(xc)+E(xc)   XCENC  =        27.92082919
  PAW double counting   =      1874.58420199    -1830.29990083
  entropy T*S    EENTRO =        -0.00000000
  eigenvalues    EBANDS =      -154.11987939
  atomic energy  EATOM  =      1852.16664478
  ---------------------------------------------------
  free energy    TOTEN  =        -2.71159863 eV

  energy without entropy =       -2.71159863  energy(sigma->0) =       -2.71159863


--------------------------------------------------------------------------------------------------------




--------------------------------------- Iteration      1(  13)  ---------------------------------------


    POTLOK:  cpu time      0.1453: real time      0.1453
    SETDIJ:  cpu time      0.1779: real time      0.1780
    TRIAL :  cpu time      0.6407: real time      0.6407
    CORREC:  cpu time      1.2048: real time      1.2049
    CHARGE:  cpu time      0.5947: real time      0.5947
    --------------------------------------------
      LOOP:  cpu time      2.7685: real time      2.7786

 eigenvalue-minimisations  :     0
 total energy-change (2. order) :-0.3090076E-04  (-0.7362451E-05)
 number of electron      22.0000005 magnetization 
 augmentation part        8.1685242 magnetization 

 DIPCOR: dipole corrections for dipol
 direction  3 min pos     1,
 dipolmoment           0.000000      0.000000     -0.000001 electrons x Angstroem
 Tr[quadrupol]     -4916.275635

 energy correction for charged system         0.000000 eV
 dipol+quadrupol energy correction           -0.000000 eV
 added-field ion interaction          0.000002 eV  (added to PSCEN)


 Free energy of the ion-electron system (eV)
  ---------------------------------------------------
  alpha Z        PSCENC =         0.47150250
  Ewald energy   TEWEN  =       239.48017023
  -Hartree energ DENC   =     -2012.72303305
  -exchange      EXHF   =         0.00000000
  -V(xc)+E(xc)   XCENC  =        27.91470615
  PAW double counting   =      1874.22410415    -1829.94108522
  entropy T*S    EENTRO =        -0.00000000
  eigenvalues    EBANDS =      -154.30463908
  atomic energy  EATOM  =      1852.16664478
  ---------------------------------------------------
  free energy    TOTEN  =        -2.71162953 eV

  energy without entropy =       -2.71162953  energy(sigma->0) =       -2.71162953


--------------------------------------------------------------------------------------------------------




--------------------------------------- Iteration      1(  14)  ---------------------------------------


    POTLOK:  cpu time      0.1434: real time      0.1434
    SETDIJ:  cpu time      0.1804: real time      0.1804
    TRIAL :  cpu time      0.6437: real time      0.6437
    CORREC:  cpu time      1.2011: real time      1.2011
    CHARGE:  cpu time      0.5930: real time      0.5931
    --------------------------------------------
      LOOP:  cpu time      2.7662: real time      2.7783

 eigenvalue-minimisations  :     0
 total energy-change (2. order) :-0.7327439E-05  (-0.1344885E-05)
 number of electron      22.0000005 magnetization 
 augmentation part        8.1686262 magnetization 

 DIPCOR: dipole corrections for dipol
 direction  3 min pos     1,
 dipolmoment           0.000000      0.000000     -0.000001 electrons x Angstroem
 Tr[quadrupol]     -4916.275727

 energy correction for charged system         0.000000 eV
 dipol+quadrupol energy correction           -0.000000 eV
 added-field ion interaction          0.000002 eV  (added to PSCEN)


 Free energy of the ion-electron system (eV)
  ---------------------------------------------------
  alpha Z        PSCENC =         0.47150229
  Ewald energy   TEWEN  =       239.48017023
  -Hartree energ DENC   =     -2012.72266310
  -exchange      EXHF   =         0.00000000
  -V(xc)+E(xc)   XCENC  =        27.91474535
  PAW double counting   =      1874.25686531    -1829.97403010
  entropy T*S    EENTRO =        -0.00000000
  eigenvalues    EBANDS =      -154.30487163
  atomic energy  EATOM  =      1852.16664478
  ---------------------------------------------------
  free energy    TOTEN  =        -2.71163686 eV

  energy without entropy =       -2.71163686  energy(sigma->0) =       -2.71163686


--------------------------------------------------------------------------------------------------------




--------------------------------------- Iteration      1(  15)  ---------------------------------------


    POTLOK:  cpu time      0.1465: real time      0.1466
    SETDIJ:  cpu time      0.1716: real time      0.1716
    TRIAL :  cpu time      0.6408: real time      0.6409
    CORREC:  cpu time      1.2001: real time      1.2002
    CHARGE:  cpu time      0.5948: real time      0.5949
    --------------------------------------------
      LOOP:  cpu time      2.7689: real time      2.7693

 eigenvalue-minimisations  :     0
 total energy-change (2. order) :-0.1222639E-05  (-0.1635069E-06)
 number of electron      22.0000005 magnetization 
 augmentation part        8.1685373 magnetization 

 DIPCOR: dipole corrections for dipol
 direction  3 min pos     1,
 dipolmoment           0.000000      0.000000     -0.000001 electrons x Angstroem
 Tr[quadrupol]     -4916.275719

 energy correction for charged system         0.000000 eV
 dipol+quadrupol energy correction           -0.000000 eV
 added-field ion interaction          0.000002 eV  (added to PSCEN)


 Free energy of the ion-electron system (eV)
  ---------------------------------------------------
  alpha Z        PSCENC =         0.47150232
  Ewald energy   TEWEN  =       239.48017023
  -Hartree energ DENC   =     -2012.74234940
  -exchange      EXHF   =         0.00000000
  -V(xc)+E(xc)   XCENC  =        27.91536837
  PAW double counting   =      1874.31288311    -1830.03030918
  entropy T*S    EENTRO =        -0.00000000
  eigenvalues    EBANDS =      -154.28554832
  atomic energy  EATOM  =      1852.16664478
  ---------------------------------------------------
  free energy    TOTEN  =        -2.71163808 eV

  energy without entropy =       -2.71163808  energy(sigma->0) =       -2.71163808


--------------------------------------------------------------------------------------------------------




--------------------------------------- Iteration      1(  16)  ---------------------------------------


    POTLOK:  cpu time      0.1486: real time      0.1486
    SETDIJ:  cpu time      0.1742: real time      0.1742
    TRIAL :  cpu time      0.6416: real time      0.6417
    CORREC:  cpu time      1.1957: real time      1.1958
    EDDIAG:  cpu time      0.3150: real time      0.3154
    CHARGE:  cpu time      0.5922: real time      0.5923
    --------------------------------------------
      LOOP:  cpu time      3.0740: real time      3.0845

 eigenvalue-minimisations  :     0
 total energy-change (2. order) :-0.1346266E-06  (-0.6015203E-07)
 number of electron      22.0000005 magnetization 
 augmentation part        8.1684930 magnetization 

 DIPCOR: dipole corrections for dipol
 direction  3 min pos     1,
 dipolmoment           0.000000      0.000000     -0.000001 electrons x Angstroem
 Tr[quadrupol]     -4916.275638

 energy correction for charged system         0.000000 eV
 dipol+quadrupol energy correction           -0.000000 eV
 added-field ion interaction          0.000002 eV  (added to PSCEN)


 Free energy of the ion-electron system (eV)
  ---------------------------------------------------
  alpha Z        PSCENC =         0.47150231
  Ewald energy   TEWEN  =       239.48017023
  -Hartree energ DENC   =     -2012.72836389
  -exchange      EXHF   =         0.00000000
  -V(xc)+E(xc)   XCENC  =        27.91492676
  PAW double counting   =      1874.29226920    -1830.00993526
  entropy T*S    EENTRO =        -0.00000000
  eigenvalues    EBANDS =      -154.29885235
  atomic energy  EATOM  =      1852.16664478
  ---------------------------------------------------
  free energy    TOTEN  =        -2.71163822 eV

  energy without entropy =       -2.71163822  energy(sigma->0) =       -2.71163822


--------------------------------------------------------------------------------------------------------


  average scaling for gradient   1.5167


 average (electrostatic) potential at core
  the test charge radii are     1.2098
  (the norm of the test charge is              1.0000)
       1 -76.5466       2 -76.5466



 E-fermi :  -5.9688     XC(G=0):  -0.1473     alpha+bet : -0.0481

 Fermi energy:        -5.9687515229

 k-point     1 :       0.1250    0.1250    0.0000
  band No.  band energies     occupation 
      1      -9.0934      2.00000
      2      -7.9070      2.00000
      3      -7.9070      2.00000
      4      -6.9127      2.00000
      5      -6.9127      2.00000
      6      -6.5712      2.00000
      7      -6.5711      2.00000
      8      -6.4478      2.00000
      9      -6.2992      2.00000
     10      -6.2992      2.00000
     11      -6.2342      2.00000
     12      -4.2681      0.00000
     13      -1.1928      0.00000
     14      -1.1928      0.00000
     15      -0.8260      0.00000
     16       0.0498      0.00000
     17       0.2900      0.00000
     18       0.2998      0.00000
     19       0.3094      0.00000
     20       0.3238      0.00000
     21       0.3862      0.00000
     22       0.3904      0.00000
     23       0.4605      0.00000
     24       0.4838      0.00000
     25       0.5481      0.00000
     26       0.5719      0.00000
     27       0.5938      0.00000
     28       0.6086      0.00000
     29       0.6627      0.00000
     30       0.7077      0.00000
     31       0.7246      0.00000
     32       0.7718      0.00000
     33       0.7744      0.00000
     34       0.7793      0.00000
     35       0.8201      0.00000
     36       0.8532      0.00000
     37       0.8968      0.00000
     38       0.9371      0.00000
     39       0.9913      0.00000
     40       1.0080      0.00000
     41       1.0408      0.00000
     42       1.1185      0.00000
     43       1.1734      0.00000
     44       1.1933      0.00000
     45       1.2068      0.00000
     46       1.2331      0.00000
     47       1.2437      0.00000
     48       1.2600      0.00000
     49       1.3835      0.00000
     50       1.4193      0.00000
     51       1.4678      0.00000
     52       1.4874      0.00000
     53       1.4892      0.00000
     54       1.5010      0.00000
     55       1.5057      0.00000
     56       1.5384      0.00000
     57       1.5501      0.00000
     58       1.5509      0.00000
     59       1.5529      0.00000
     60       1.5563      0.00000
     61       1.6175      0.00000
     62       1.6194      0.00000
     63       1.6558      0.00000
     64       1.6859      0.00000
     65       1.6904      0.00000
     66       1.7100      0.00000
     67       1.7337      0.00000
     68       1.7380      0.00000
     69       1.7383      0.00000
     70       1.7516      0.00000
     71       1.7643      0.00000
     72       1.7851      0.00000
     73       1.8016      0.00000
     74       1.8190      0.00000
     75       1.8318      0.00000
     76       1.8344      0.00000
     77       1.8621      0.00000
     78       1.8802      0.00000
     79       1.9043      0.00000
     80       1.9246      0.00000
     81       1.9254      0.00000
     82       1.9259      0.00000
     83       1.9408      0.00000
     84       1.9578      0.00000
     85       1.9638      0.00000
     86       2.0129      0.00000
     87       2.0219      0.00000
     88       2.0395      0.00000
     89       2.0586      0.00000
     90       2.0694      0.00000
     91       2.1370      0.00000
     92       2.1504      0.00000
     93       2.1531      0.00000
     94       2.1573      0.00000
     95       2.2408      0.00000
     96       2.2561      0.00000
     97       2.2660      0.00000
     98       2.3415      0.00000
     99       2.3818      0.00000
    100       2.3923      0.00000
    101       2.4517      0.00000
    102       2.4556      0.00000
    103       2.4721      0.00000
    104       2.5973      0.00000
    105       2.6008      0.00000
    106       2.6040      0.00000
    107       2.6261      0.00000
    108       2.6492      0.00000
    109       2.6655      0.00000
    110       2.6869      0.00000
    111       2.7000      0.00000
    112       2.7018      0.00000
    113       2.7036      0.00000
    114       2.7461      0.00000
    115       2.7636      0.00000
    116       2.7756      0.00000
    117       2.7765      0.00000
    118       2.8287      0.00000
    119       2.8469      0.00000
    120       2.8483      0.00000
    121       2.8625      0.00000
    122       2.8859      0.00000
    123       2.9092      0.00000
    124       2.9277      0.00000
    125       2.9359      0.00000
    126       2.9382      0.00000
    127       2.9720      0.00000
    128       2.9780      0.00000
    129       2.9927      0.00000
    130       2.9929      0.00000
    131       3.0078      0.00000
    132       3.0258      0.00000
    133       3.0308      0.00000
    134       3.0319      0.00000
    135       3.0481      0.00000
    136       3.0588      0.00000
    137       3.0593      0.00000
    138       3.0720      0.00000
    139       3.0811      0.00000
    140       3.1184      0.00000
    141       3.1325      0.00000
    142       3.1325      0.00000
    143       3.1454      0.00000
    144       3.1707      0.00000
    145       3.1757      0.00000
    146       3.1829      0.00000
    147       3.1843      0.00000
    148       3.1953      0.00000
    149       3.2093      0.00000
    150       3.2274      0.00000
    151       3.2583      0.00000
    152       3.2779      0.00000
    153       3.2896      0.00000
    154       3.2972      0.00000
    155       3.3004      0.00000
    156       3.3015      0.00000
    157       3.3288      0.00000
    158       3.3346      0.00000
    159       3.3504      0.00000
    160       3.3981      0.00000
    161       3.3992      0.00000
    162       3.4147      0.00000
    163       3.4402      0.00000
    164       3.4577      0.00000
    165       3.4584      0.00000
    166       3.4589      0.00000
    167       3.4733      0.00000
    168       3.4886      0.00000
    169       3.5014      0.00000
    170       3.5091      0.00000
    171       3.5552      0.00000
    172       3.5583      0.00000
    173       3.5649      0.00000
    174       3.5996      0.00000
    175       3.6077      0.00000
    176       3.6153      0.00000
    177       3.6521      0.00000
    178       3.6661      0.00000
    179       3.6894      0.00000
    180       3.6965      0.00000
    181       3.7084      0.00000
    182       3.7503      0.00000
    183       3.7908      0.00000
    184       3.7966      0.00000
    185       3.8249      0.00000
    186       3.8492      0.00000
    187       3.8808      0.00000
    188       3.8847      0.00000
    189       3.9054      0.00000
    190       3.9060      0.00000
    191       3.9062      0.00000
    192       3.9377      0.00000

 k-point     2 :       0.3750    0.1250    0.0000
  band No.  band energies     occupation 
      1      -9.0934      2.00000
      2      -7.9070      2.00000
      3      -7.9070      2.00000
      4      -6.9127      2.00000
      5      -6.9127      2.00000
      6      -6.5712      2.00000
      7      -6.5711      2.00000
      8      -6.4478      2.00000
      9      -6.2992      2.00000
     10      -6.2992      2.00000
     11      -6.2342      2.00000
     12      -4.2681      0.00000
     13      -1.1929      0.00000
     14      -1.1928      0.00000
     15      -0.8260      0.00000
     16       0.0930      0.00000
     17       0.1786      0.00000
     18       0.3157      0.00000
     19       0.3468      0.00000
     20       0.3566      0.00000
     21       0.3636      0.00000
     22       0.3933      0.00000
     23       0.4302      0.00000
     24       0.4715      0.00000
     25       0.5118      0.00000
     26       0.5468      0.00000
     27       0.5928      0.00000
     28       0.6423      0.00000
     29       0.6691      0.00000
     30       0.6846      0.00000
     31       0.7251      0.00000
     32       0.7300      0.00000
     33       0.8190      0.00000
     34       0.8668      0.00000
     35       0.8805      0.00000
     36       0.9202      0.00000
     37       0.9373      0.00000
     38       0.9614      0.00000
     39       0.9859      0.00000
     40       1.0092      0.00000
     41       1.0848      0.00000
     42       1.1589      0.00000
     43       1.1812      0.00000
     44       1.2017      0.00000
     45       1.2458      0.00000
     46       1.2688      0.00000
     47       1.2753      0.00000
     48       1.2895      0.00000
     49       1.2912      0.00000
     50       1.3214      0.00000
     51       1.3590      0.00000
     52       1.3807      0.00000
     53       1.3818      0.00000
     54       1.4006      0.00000
     55       1.4049      0.00000
     56       1.4768      0.00000
     57       1.5065      0.00000
     58       1.5196      0.00000
     59       1.5384      0.00000
     60       1.5544      0.00000
     61       1.5741      0.00000
     62       1.5852      0.00000
     63       1.6224      0.00000
     64       1.6331      0.00000
     65       1.6392      0.00000
     66       1.6426      0.00000
     67       1.6625      0.00000
     68       1.6772      0.00000
     69       1.7125      0.00000
     70       1.7225      0.00000
     71       1.7709      0.00000
     72       1.7756      0.00000
     73       1.8144      0.00000
     74       1.8251      0.00000
     75       1.8545      0.00000
     76       1.8943      0.00000
     77       1.9075      0.00000
     78       1.9437      0.00000
     79       1.9453      0.00000
     80       1.9752      0.00000
     81       1.9815      0.00000
     82       2.0325      0.00000
     83       2.0921      0.00000
     84       2.1125      0.00000
     85       2.1174      0.00000
     86       2.1325      0.00000
     87       2.1375      0.00000
     88       2.1585      0.00000
     89       2.1735      0.00000
     90       2.1850      0.00000
     91       2.2481      0.00000
     92       2.2533      0.00000
     93       2.2842      0.00000
     94       2.2921      0.00000
     95       2.3084      0.00000
     96       2.3360      0.00000
     97       2.3722      0.00000
     98       2.3797      0.00000
     99       2.3859      0.00000
    100       2.4074      0.00000
    101       2.4082      0.00000
    102       2.4304      0.00000
    103       2.4423      0.00000
    104       2.4510      0.00000
    105       2.4939      0.00000
    106       2.5013      0.00000
    107       2.5186      0.00000
    108       2.5449      0.00000
    109       2.5661      0.00000
    110       2.5755      0.00000
    111       2.5874      0.00000
    112       2.5894      0.00000
    113       2.6009      0.00000
    114       2.6106      0.00000
    115       2.6874      0.00000
    116       2.6936      0.00000
    117       2.6985      0.00000
    118       2.7350      0.00000
    119       2.7450      0.00000
    120       2.7668      0.00000
    121       2.8142      0.00000
    122       2.8412      0.00000
    123       2.8565      0.00000
    124       2.8568      0.00000
    125       2.8630      0.00000
    126       2.8845      0.00000
    127       2.8963      0.00000
    128       2.8996      0.00000
    129       2.9089      0.00000
    130       2.9604      0.00000
    131       2.9606      0.00000
    132       3.0030      0.00000
    133       3.0096      0.00000
    134       3.0211      0.00000
    135       3.0382      0.00000
    136       3.0487      0.00000
    137       3.0772      0.00000
    138       3.0786      0.00000
    139       3.1043      0.00000
    140       3.1171      0.00000
    141       3.1468      0.00000
    142       3.1777      0.00000
    143       3.1919      0.00000
    144       3.1968      0.00000
    145       3.2261      0.00000
    146       3.2326      0.00000
    147       3.2454      0.00000
    148       3.2641      0.00000
    149       3.2667      0.00000
    150       3.2711      0.00000
    151       3.2770      0.00000
    152       3.3239      0.00000
    153       3.3440      0.00000
    154       3.3529      0.00000
    155       3.3534      0.00000
    156       3.3654      0.00000
    157       3.3691      0.00000
    158       3.3971      0.00000
    159       3.4025      0.00000
    160       3.4136      0.00000
    161       3.4293      0.00000
    162       3.4492      0.00000
    163       3.4728      0.00000
    164       3.4856      0.00000
    165       3.4931      0.00000
    166       3.5051      0.00000
    167       3.5573      0.00000
    168       3.5722      0.00000
    169       3.5829      0.00000
    170       3.5844      0.00000
    171       3.6024      0.00000
    172       3.6085      0.00000
    173       3.6252      0.00000
    174       3.6469      0.00000
    175       3.6546      0.00000
    176       3.6776      0.00000
    177       3.6856      0.00000
    178       3.6870      0.00000
    179       3.6893      0.00000
    180       3.7049      0.00000
    181       3.7116      0.00000
    182       3.7276      0.00000
    183       3.7417      0.00000
    184       3.7465      0.00000
    185       3.7599      0.00000
    186       3.7953      0.00000
    187       3.7987      0.00000
    188       3.8337      0.00000
    189       3.8517      0.00000
    190       3.8740      0.00000
    191       3.8838      0.00000
    192       3.8970      0.00000

 k-point     3 :       0.3750    0.3750    0.0000
  band No.  band energies     occupation 
      1      -9.0934      2.00000
      2      -7.9070      2.00000
      3      -7.9070      2.00000
      4      -6.9127      2.00000
      5      -6.9127      2.00000
      6      -6.5712      2.00000
      7      -6.5711      2.00000
      8      -6.4478      2.00000
      9      -6.2992      2.00000
     10      -6.2992      2.00000
     11      -6.2342      2.00000
     12      -4.2681      0.00000
     13      -1.1929      0.00000
     14      -1.1929      0.00000
     15      -0.8259      0.00000
     16       0.1360      0.00000
     17       0.2203      0.00000
     18       0.2218      0.00000
     19       0.3059      0.00000
     20       0.3365      0.00000
     21       0.3610      0.00000
     22       0.3785      0.00000
     23       0.4048      0.00000
     24       0.4988      0.00000
     25       0.5250      0.00000
     26       0.5307      0.00000
     27       0.6016      0.00000
     28       0.6479      0.00000
     29       0.6682      0.00000
     30       0.7001      0.00000
     31       0.7267      0.00000
     32       0.7969      0.00000
     33       0.8054      0.00000
     34       0.9251      0.00000
     35       0.9644      0.00000
     36       1.0165      0.00000
     37       1.0286      0.00000
     38       1.0324      0.00000
     39       1.0363      0.00000
     40       1.0445      0.00000
     41       1.0650      0.00000
     42       1.0763      0.00000
     43       1.1163      0.00000
     44       1.1229      0.00000
     45       1.1423      0.00000
     46       1.2592      0.00000
     47       1.2732      0.00000
     48       1.2795      0.00000
     49       1.3089      0.00000
     50       1.3174      0.00000
     51       1.3208      0.00000
     52       1.3271      0.00000
     53       1.3457      0.00000
     54       1.3581      0.00000
     55       1.3609      0.00000
     56       1.4035      0.00000
     57       1.4150      0.00000
     58       1.4152      0.00000
     59       1.4393      0.00000
     60       1.4991      0.00000
     61       1.5012      0.00000
     62       1.5312      0.00000
     63       1.5326      0.00000
     64       1.5603      0.00000
     65       1.6290      0.00000
     66       1.6364      0.00000
     67       1.7540      0.00000
     68       1.8014      0.00000
     69       1.8041      0.00000
     70       1.8417      0.00000
     71       1.8628      0.00000
     72       1.8774      0.00000
     73       1.8896      0.00000
     74       1.9366      0.00000
     75       1.9512      0.00000
     76       1.9662      0.00000
     77       1.9936      0.00000
     78       1.9948      0.00000
     79       2.0171      0.00000
     80       2.0214      0.00000
     81       2.0313      0.00000
     82       2.0553      0.00000
     83       2.0634      0.00000
     84       2.0795      0.00000
     85       2.1099      0.00000
     86       2.1432      0.00000
     87       2.1592      0.00000
     88       2.1668      0.00000
     89       2.1737      0.00000
     90       2.1960      0.00000
     91       2.2227      0.00000
     92       2.2263      0.00000
     93       2.2616      0.00000
     94       2.2718      0.00000
     95       2.3024      0.00000
     96       2.3088      0.00000
     97       2.3095      0.00000
     98       2.3256      0.00000
     99       2.3483      0.00000
    100       2.3670      0.00000
    101       2.3985      0.00000
    102       2.4052      0.00000
    103       2.4325      0.00000
    104       2.4552      0.00000
    105       2.4693      0.00000
    106       2.5063      0.00000
    107       2.5225      0.00000
    108       2.5436      0.00000
    109       2.5844      0.00000
    110       2.6208      0.00000
    111       2.6387      0.00000
    112       2.6433      0.00000
    113       2.6895      0.00000
    114       2.6961      0.00000
    115       2.7078      0.00000
    116       2.7121      0.00000
    117       2.7302      0.00000
    118       2.7449      0.00000
    119       2.7495      0.00000
    120       2.7579      0.00000
    121       2.8098      0.00000
    122       2.8240      0.00000
    123       2.8256      0.00000
    124       2.8446      0.00000
    125       2.8712      0.00000
    126       2.8760      0.00000
    127       2.8856      0.00000
    128       2.8935      0.00000
    129       2.9008      0.00000
    130       2.9215      0.00000
    131       2.9341      0.00000
    132       2.9349      0.00000
    133       2.9681      0.00000
    134       2.9795      0.00000
    135       2.9945      0.00000
    136       3.0113      0.00000
    137       3.0274      0.00000
    138       3.0418      0.00000
    139       3.0426      0.00000
    140       3.0908      0.00000
    141       3.0944      0.00000
    142       3.0982      0.00000
    143       3.1085      0.00000
    144       3.1445      0.00000
    145       3.1657      0.00000
    146       3.1968      0.00000
    147       3.2174      0.00000
    148       3.2242      0.00000
    149       3.2449      0.00000
    150       3.2454      0.00000
    151       3.2461      0.00000
    152       3.2487      0.00000
    153       3.2711      0.00000
    154       3.2875      0.00000
    155       3.3004      0.00000
    156       3.3148      0.00000
    157       3.3501      0.00000
    158       3.3892      0.00000
    159       3.4022      0.00000
    160       3.4267      0.00000
    161       3.4421      0.00000
    162       3.4759      0.00000
    163       3.5012      0.00000
    164       3.5109      0.00000
    165       3.5134      0.00000
    166       3.5260      0.00000
    167       3.5323      0.00000
    168       3.5439      0.00000
    169       3.5462      0.00000
    170       3.5661      0.00000
    171       3.5924      0.00000
    172       3.6433      0.00000
    173       3.6544      0.00000
    174       3.6649      0.00000
    175       3.6666      0.00000
    176       3.6695      0.00000
    177       3.6793      0.00000
    178       3.6894      0.00000
    179       3.7216      0.00000
    180       3.7262      0.00000
    181       3.7507      0.00000
    182       3.7509      0.00000
    183       3.7723      0.00000
    184       3.7781      0.00000
    185       3.7828      0.00000
    186       3.7906      0.00000
    187       3.8026      0.00000
    188       3.8109      0.00000
    189       3.8109      0.00000
    190       3.8248      0.00000
    191       3.9208      0.00000
    192       3.9282      0.00000


--------------------------------------------------------------------------------------------------------


 soft charge-density along one line, spin component           1
         0         1         2         3         4         5         6         7         8         9
 total charge-density along one line

 pseudopotential strength for first ion, spin component:           1
 -9.085  -0.000   0.000  -0.000  -0.000  -9.210  -0.000   0.000
 -0.000  -9.182  -0.000  -0.000   0.000  -0.000  -9.305  -0.000
  0.000  -0.000  -9.240  -0.000  -0.000   0.000  -0.000  -9.361
 -0.000  -0.000  -0.000  -9.182  -0.000  -0.000  -0.000  -0.000
 -0.000   0.000  -0.000  -0.000  -9.085  -0.000   0.000  -0.000
 -9.210  -0.000   0.000  -0.000  -0.000  -9.319  -0.000   0.000
 -0.000  -9.305  -0.000  -0.000   0.000  -0.000  -9.412  -0.000
  0.000  -0.000  -9.361  -0.000  -0.000   0.000  -0.000  -9.467
 -0.000  -0.000  -0.000  -9.305  -0.000  -0.000  -0.000  -0.000
 -0.000   0.000  -0.000  -0.000  -9.210  -0.000   0.000  -0.000
  0.000   0.000   0.051   0.000  -0.000   0.000   0.000   0.051
  0.000   0.000   0.074   0.000  -0.000   0.000   0.000   0.074
  0.000   0.038   0.000   0.000   0.000  -0.000   0.037   0.000
  0.000  -0.000   0.043   0.000   0.000   0.000  -0.000   0.042
 -0.000   0.000  -0.000   0.038  -0.000  -0.000   0.000   0.000
 -0.000   0.043   0.000   0.000   0.000   0.000   0.042   0.000
  0.000  -0.000   0.051   0.000   0.000   0.000  -0.000   0.050
 -0.000   0.000  -0.000   0.043  -0.000  -0.000   0.000  -0.000
 total augmentation occupancy for first ion, spin component:           1
  2.279   0.000   0.000   0.000   0.000  -0.157   0.000   0.000  -0.000   0.000   0.000   0.000   0.000   0.000   0.000  -0.000
  0.000   2.783   0.000   0.000   0.000  -0.000  -0.754  -0.000   0.000   0.000   0.000   0.000   0.055   0.000   0.000   0.038
  0.000   0.000   3.328   0.000  -0.000   0.000  -0.000  -1.649  -0.000   0.000  -1.737   0.271   0.000   0.221   0.000   0.000
  0.000   0.000   0.000   2.783   0.000   0.000   0.000   0.000  -0.754  -0.000   0.000   0.000   0.000  -0.000   0.055   0.000
  0.000   0.000  -0.000   0.000   2.278   0.000   0.000   0.000  -0.000  -0.157   0.000  -0.000   0.000  -0.000   0.000   0.000
 -0.157  -0.000   0.000   0.000   0.000   0.040  -0.000   0.000   0.000   0.000   0.000   0.000   0.000   0.000   0.000   0.000
  0.000  -0.754   0.000   0.000   0.000  -0.000   0.714  -0.000   0.000   0.000   0.000  -0.000  -0.090   0.000   0.000   0.001
  0.000  -0.000  -1.649   0.000   0.000   0.000  -0.000   1.883   0.000  -0.000   1.454  -0.250  -0.000  -0.326   0.000  -0.000
 -0.000   0.000  -0.000  -0.754  -0.000   0.000   0.000   0.000   0.714   0.000   0.000  -0.000   0.000   0.000  -0.090   0.000
  0.000   0.000   0.000  -0.000  -0.157   0.000   0.000  -0.000   0.000   0.040  -0.000   0.000   0.000   0.000  -0.000   0.000
  0.000   0.000  -1.737   0.000   0.000   0.000   0.000   1.454   0.000  -0.000   1.846  -0.244   0.000  -0.272   0.000  -0.000
  0.000  -0.000   0.271   0.000  -0.000   0.000  -0.000  -0.250   0.000   0.000  -0.244   0.037  -0.000   0.044   0.000   0.000
  0.000   0.055   0.000   0.000   0.000   0.000  -0.090  -0.000   0.000   0.000  -0.000   0.000   0.012  -0.000   0.000  -0.001
  0.000   0.000   0.221  -0.000  -0.000   0.000   0.000  -0.326   0.000   0.000  -0.272   0.044   0.000   0.061   0.000   0.000
  0.000   0.000   0.000   0.055   0.000   0.000   0.000   0.000  -0.090  -0.000   0.000   0.000   0.000   0.000   0.012   0.000
 -0.000   0.038  -0.000   0.000   0.000   0.000   0.001  -0.000   0.000   0.000   0.000  -0.000  -0.001  -0.000   0.000   0.001
  0.000   0.000   0.021  -0.000  -0.000   0.000  -0.000   0.022   0.000  -0.000   0.013  -0.002   0.000  -0.006   0.000   0.000
  0.000   0.000   0.000   0.038   0.000   0.000   0.000   0.000   0.001   0.000   0.000   0.000   0.000   0.000  -0.001   0.000


------------------------ aborting loop because EDIFF is reached ----------------------------------------


    FORLOC:  cpu time      0.0013: real time      0.0013
    FORNL :  cpu time      0.2572: real time      0.2576
    STRESS:  cpu time      0.7672: real time      0.7678
    FORCOR:  cpu time      0.0927: real time      0.0927
    OFIELD:  cpu time      0.0002: real time      0.0002

  Hirshfeld charges:
            ion         q(e)     
   ------------------------------
      1     Au         -0.000
      2     Au          0.000

  Hirshfeld-I charges:
            ion         q(e)        dq(e)    
   ------------------------------------------
      1     Au         -0.000      0.249E-06
      2     Au          0.000     -0.249E-06

   Hirshfeld-I converged in   1 cycles. Convergence criterion |dq|< 0.500E-04 e

  Tkatchenko/Scheffler method for vdW energy calculation
  ---------------------------------------------------------------------------------------------

  Parameters of vdW forcefield:
            C6ts              R0ts          ALPHAts         R0scs        ALPHAscs        RELVOL 
            (au)              (au)           (au)            (au)          (au)                 
   ---------------------------------------------------------------------------------------------
   Au        422.168          3.847         45.094          3.804         43.587          0.994
   Au        422.167          3.847         45.094          3.804         43.587          0.994

  vdW correction parametrized for the method pbe       

  IVDW = 263
  VDW_RADIUS =    50.000 A
  VDW_SR =     0.830
  VDW_D =     6.000
  SCSRAD =   120.000 A
  LVDWSCS = T
  LSCSGRAD = T
  LSCALER0 = T
  ITIM =  1
  Edisp (eV):   -0.03470
    FORVDW:  cpu time     53.6444: real time     53.6484

  FORCE on cell =-STRESS in cart. coord.  units (eV):
  Direction    XX          YY          ZZ          XY          YZ          ZX
  --------------------------------------------------------------------------------------
  Alpha Z     0.47150     0.47150     0.47150
  Ewald    -147.76330  -147.76330   535.00683     0.00000     0.00000     0.00000
  Hartree   522.45165   522.45165   967.81801     0.00000    -0.00000    -0.00000
  E(xc)     -98.90984   -98.90984   -97.85025    -0.00000     0.00000     0.00000
  Local    -721.35740  -721.35740 -1818.67302    -0.00000     0.00000     0.00000
  n-local    -5.59441    -5.59441   -22.71035     0.00001    -0.00000    -0.00000
  augment   136.12879   136.12879   132.20067    -0.00000    -0.00000     0.00000
  Kinetic   314.53791   314.53791   304.05727    -0.00000     0.00000    -0.00000
  Fock        0.00000     0.00000     0.00000     0.00000     0.00000     0.00000
  vdW        -0.00030     0.00005     0.02595    -0.00005    -0.00000     0.00000
  -------------------------------------------------------------------------------------
  Total      -0.03521    -0.03521     0.34662     0.00000     0.00000    -0.00000
  in kB      -0.00571    -0.00571     0.05620     0.00000     0.00000    -0.00000
  external pressure =        0.01 kB  Pullay stress =        0.00 kB


 VOLUME and BASIS-vectors are now :
 -----------------------------------------------------------------------------
  energy-cutoff  :      520.00
  volume of cell :     9881.61
      direct lattice vectors                 reciprocal lattice vectors
    21.138852197  0.000000000  0.000000000     0.047306258  0.000000000  0.000000000
     0.000000000 21.138852197  0.000000000     0.000000000  0.047306258  0.000000000
     0.000000000  0.000000000 22.113885220     0.000000000  0.000000000  0.045220457

  length of vectors
    21.138852197 21.138852197 22.113885220     0.047306258  0.047306258  0.045220457


 FORCES acting on ions:
    Electron-Ion                     Ewald-Force                    Non-Local-Force
 -----------------------------------------------------------------------------------------------
   -.612E-13 0.482E-11 -.285E+03   -.333E-16 0.361E-16 0.278E+03   0.000E+00 0.000E+00 0.769E+01
   0.115E-12 0.103E-11 0.285E+03   -.102E-16 -.171E-16 -.278E+03   0.207E-24 0.000E+00 -.769E+01
 -----------------------------------------------------------------------------------------------
   0.533E-13 0.528E-11 0.828E-06   -.434E-16 0.190E-16 0.000E+00   0.207E-24 0.000E+00 0.888E-15


 POSITION                                       TOTAL-FORCE (eV/Angst)
 -----------------------------------------------------------------------------------
     10.56943     10.56943     15.76120         0.000000     -0.000000      0.154094
     10.56943     10.56943     13.26453         0.000000      0.000000     -0.154094
 -----------------------------------------------------------------------------------
    total drift:                                0.000000      0.000000      0.000001


--------------------------------------------------------------------------------------------------------



  FREE ENERGIE OF THE ION-ELECTRON SYSTEM (eV)
  ---------------------------------------------------
  free  energy   TOTEN  =        -2.74633982 eV

  energy  without entropy=       -2.74633982  energy(sigma->0) =       -2.74633982



--------------------------------------------------------------------------------------------------------


    POTLOK:  cpu time      0.9712: real time      0.9713


--------------------------------------------------------------------------------------------------------


     LOOP+:  cpu time    159.2808: real time    159.5874
    4ORBIT:  cpu time      0.0000: real time      0.0000

 total amount of memory used by VASP MPI-rank0   123846. kBytes
=======================================================================

   base      :      30000. kBytes
   nonlr-proj:        708. kBytes
   fftplans  :      35211. kBytes
   grid      :      48291. kBytes
   one-center:         15. kBytes
   wavefun   :       9621. kBytes

  
  
 General timing and accounting informations for this job:
 ========================================================
  
                  Total CPU time used (sec):      223.982
                            User time (sec):      221.286
                          System time (sec):        2.696
                         Elapsed time (sec):      244.838
  
                   Maximum memory used (kb):      332284.
                   Average memory used (kb):          N/A
  
                          Minor page faults:        55440
                          Major page faults:           48
                 Voluntary context switches:        18588
