 vasp.6.3.0 20Jan22 (build Apr  1 2022 16:44:48) complex                         
 executed on        HPECrayEX_GCC date 2023.02.10  16:00:26
 running 2048 mpi-ranks, with    1 threads/rank
 distrk:  each k-point on 1024 cores,    2 groups
 distr:  one band on NCORE=   4 cores,  256 groups


--------------------------------------------------------------------------------------------------------


 INCAR:
   SYSTEM = MgO-rocksalt
   ISMEAR = 0
   SIGMA = 0.05
   EDIFF = 1E-6
   ALGO = ALL
   ISTART = 0
   IBRION = -1
   NSW = 0
   ISYM = 2
   DIPOL = 0.5 0.5 0.5
   IDIPOL = 3
   LDIPOL = .TRUE.
   LHFCALC = .TRUE.
   GGA = B5
   AEXX = 0.2
   AGGAX = 0.72
   AGGAC = 0.81
   ALDAC = 0.19
   ENCUT = 520
   PREC = Accurate
   LASPH = .TRUE.
   LREAL = Auto
   ISPIN = 1
   NELM = 200
   NELMIN = 8
   NCORE = 4
   KPAR = 2
   LWAVE = .FALSE.
   LCHARG = .FALSE.

 POTCAR:    PAW_PBE Cu 22Jun2005                  
 -----------------------------------------------------------------------------
|                                                                             |
|           W    W    AA    RRRRR   N    N  II  N    N   GGGG   !!!           |
|           W    W   A  A   R    R  NN   N  II  NN   N  G    G  !!!           |
|           W    W  A    A  R    R  N N  N  II  N N  N  G       !!!           |
|           W WW W  AAAAAA  RRRRR   N  N N  II  N  N N  G  GGG   !            |
|           WW  WW  A    A  R   R   N   NN  II  N   NN  G    G                |
|           W    W  A    A  R    R  N    N  II  N    N   GGGG   !!!           |
|                                                                             |
|     You have selected ISYM=2 for a HF type calculation. This will           |
|     symmetrize the charge density but not the exchange potential. I         |
|     suggest to use ISYM=3 instead. This uses symmetry to obtain the         |
|     orbitals at all k-points in the Brillouin zone, but does not apply      |
|     symmetry to the Hartree potential directly. The resultant charge        |
|     might have lower symmetry than the crystal but, at least, Hartree       |
|     and exchange are fully compatible.                                      |
|                                                                             |
 -----------------------------------------------------------------------------

 POTCAR:    PAW_PBE Cu 22Jun2005                  
   SHA256 =  0e71e558f37a4e8407882b4609ceaae59938afaad9ced71dfe8490308a0ab630 Cu/POTCAR             
   COPYR  = (c) Copyright 22Jun2005 Georg Kresse                                                    
   COPYR  = This file is part of the software VASP. Any use, copying, and all other rights are regul
   COPYR  = If you do not have a valid VASP license, you may not use, copy or distribute this file. 
   VRHFIN =Cu: d10 p1                                                                               
   LEXCH  = PE                                                                                      
   EATOM  =  1390.9808 eV,  102.2342 Ry                                                             
                                                                                                    
   TITEL  = PAW_PBE Cu 22Jun2005                                                                    
   LULTRA =        F    use ultrasoft PP ?                                                          
   IUNSCR =        1    unscreen: 0-lin 1-nonlin 2-no                                               
   RPACOR =    2.000    partial core radius                                                         
   POMASS =   63.546; ZVAL   =   11.000    mass and valenz                                          
   RCORE  =    2.300    outmost cutoff radius                                                       
   RWIGS  =    2.200; RWIGS  =    1.164    wigner-seitz radius (au A)                               
   ENMAX  =  295.446; ENMIN  =  221.585 eV                                                          
   ICORE  =        3    local potential                                                             
   LCOR   =        T    correct aug charges                                                         
   LPAW   =        T    paw PP                                                                      
   EAUG   =  586.980                                                                                
   DEXC   =    0.000                                                                                
   RMAX   =    2.344    core radius for proj-oper                                                   
   RAUG   =    1.300    factor for augmentation sphere                                              
   RDEP   =    2.302    radius for radial grids                                                     
   RDEPT  =    1.771    core radius for aug-charge                                                  
                                                                                                    
   Atomic configuration                                                                             
    9 entries                                                                                       
     n  l   j            E        occ.                                                              
     1  0  0.50     -8850.2468   2.0000                                                             
     2  0  0.50     -1062.3498   2.0000                                                             
     2  1  1.50      -916.8226   6.0000                                                             
     3  0  0.50      -114.6929   2.0000                                                             
     3  1  1.50       -72.1325   6.0000                                                             
     3  2  2.50        -5.0394  10.0000                                                             
     4  0  0.50        -4.6097   1.0000                                                             
     4  1  0.50        -4.0817   0.0000                                                             
     4  3  2.50        -1.3606   0.0000                                                             
   Description                                                                                      
     l       E           TYP  RCUT    TYP  RCUT                                                     
     2     -5.0393973     23  2.200                                                                 
     2     10.8846608     23  2.200                                                                 
     0     -4.6097109     23  2.200                                                                 
     0      8.2520465     23  2.200                                                                 
     1     -2.7211652     23  2.200                                                                 
     1     21.7055443     23  2.200                                                                 
     3      2.7211652     23  2.300                                                                 
  local pseudopotential read in
  partial core-charges read in
  partial kinetic energy density read in
  atomic valenz-charges read in
  non local Contribution for L=           2  read in
    real space projection operators read in
  non local Contribution for L=           2  read in
    real space projection operators read in
  non local Contribution for L=           0  read in
    real space projection operators read in
  non local Contribution for L=           0  read in
    real space projection operators read in
  non local Contribution for L=           1  read in
    real space projection operators read in
  non local Contribution for L=           1  read in
    real space projection operators read in
    PAW grid and wavefunctions read in

   number of l-projection  operators is LMAX  =           6
   number of lm-projection operators is LMMAX =          18

 -----------------------------------------------------------------------------
|                                                                             |
|               ----> ADVICE to this user running VASP <----                  |
|                                                                             |
|     You have a (more or less) 'small supercell' and for smaller cells       |
|     it is recommended to use the reciprocal-space projection scheme!        |
|     The real-space optimization is not efficient for small cells and it     |
|     is also less accurate ...                                               |
|     Therefore, set LREAL=.FALSE. in the INCAR file.                         |
|                                                                             |
 -----------------------------------------------------------------------------

 Optimization of the real space projectors (new method)

 maximal supplied QI-value         = 16.25
 optimisation between [QCUT,QGAM] = [ 11.54, 23.24] = [ 37.28,151.24] Ry 
 Optimized for a Real-space Cutoff    1.53 Angstroem

   l    n(q)    QCUT    max X(q) W(low)/X(q) W(high)/X(q)  e(spline) 
   2     10    11.539     4.610    0.96E-04    0.13E-03    0.19E-06
   2     10    11.539     8.522    0.16E-03    0.21E-03    0.28E-06
   0     11    11.539    51.609    0.45E-04    0.31E-04    0.11E-06
   0     11    11.539    27.747    0.39E-04    0.29E-04    0.10E-06
   1     10    11.539    20.408    0.70E-05    0.38E-04    0.18E-06
   1     10    11.539    13.425    0.66E-05    0.34E-04    0.17E-06
 -----------------------------------------------------------------------------
|                                                                             |
|               ----> ADVICE to this user running VASP <----                  |
|                                                                             |
|     You enforced a specific xc type in the INCAR file but a different       |
|     type was found in the POTCAR file.                                      |
|     I HOPE YOU KNOW WHAT YOU ARE DOING!                                     |
|                                                                             |
 -----------------------------------------------------------------------------

  PAW_PBE Cu 22Jun2005                  :
 energy of atom  1       EATOM=-1390.9808
 kinetic energy error for atom=    0.0037 (will be added to EATOM!!)


 POSCAR: Cu
  positions in direct lattice
  No initial velocities read in
 exchange correlation table for  LEXCH =       12
   RHO(1)=    0.500       N(1)  =     2000
   RHO(2)=  100.500       N(2)  =     4000



--------------------------------------------------------------------------------------------------------


 ion  position               nearest neighbor table
   1  0.654  0.500  0.605-   2 2.30
   2  0.546  0.500  0.605-   1 2.30

  LATTYP: Found a simple tetragonal cell.
 ALAT       =    21.1388521970
 C/A-ratio  =     1.0461251639
  
  Lattice vectors:
  
 A1 = (  21.1388521970,   0.0000000000,   0.0000000000)
 A2 = (   0.0000000000,  21.1388521970,   0.0000000000)
 A3 = (   0.0000000000,   0.0000000000,  22.1138852197)


Analysis of symmetry for initial positions (statically):
=====================================================================
 Subroutine PRICEL returns:
 Original cell was already a primitive cell.
 

 Routine SETGRP: Setting up the symmetry group for a 
 simple tetragonal supercell.


 Subroutine GETGRP returns: Found  8 space group operations
 (whereof  2 operations were pure point group operations)
 out of a pool of 16 trial point group operations.


The static configuration has the point symmetry C_1h.
 The point group associated with its full space group is D_2h.


Analysis of symmetry for dynamics (positions and initial velocities):
=====================================================================
 Subroutine PRICEL returns:
 Original cell was already a primitive cell.
 

 Routine SETGRP: Setting up the symmetry group for a 
 simple tetragonal supercell.


 Subroutine GETGRP returns: Found  8 space group operations
 (whereof  2 operations were pure point group operations)
 out of a pool of 16 trial point group operations.


The dynamic configuration has the point symmetry C_1h.
 The point group associated with its full space group is D_2h.


 Subroutine INISYM returns: Found  8 space group operations
 (whereof  2 operations are pure point group operations),
 and found     1 'primitive' translations


----------------------------------------------------------------------------------------

                                     Primitive cell                                     

  volume of cell :    9881.6133

  direct lattice vectors                    reciprocal lattice vectors
    21.138852197  0.000000000  0.000000000     0.047306258  0.000000000  0.000000000
     0.000000000 21.138852197  0.000000000     0.000000000  0.047306258  0.000000000
     0.000000000  0.000000000 22.113885220     0.000000000  0.000000000  0.045220457

  length of vectors
    21.138852197 21.138852197 22.113885220     0.047306258  0.047306258  0.045220457

  position of ions in fractional coordinates (direct lattice)
     0.654285265  0.500000000  0.605295840
     0.545714664  0.500000000  0.605295840

  ion indices of the primitive-cell ions
   primitive index   ion index
                 1           1
                 2           2

----------------------------------------------------------------------------------------



 KPOINTS: KPOINTS created by Atomic Simulation Env

Automatic generation of k-mesh.
 Grid dimensions read from file:
 generate k-points for:    1    1    1

 Generating k-lattice:

  Cartesian coordinates                     Fractional coordinates (reciprocal lattice)
     0.047306258  0.000000000  0.000000000     1.000000000  0.000000000  0.000000000
     0.000000000  0.047306258  0.000000000     0.000000000  1.000000000  0.000000000
     0.000000000  0.000000000  0.045220457     0.000000000  0.000000000  1.000000000

  Length of vectors
     0.047306258  0.047306258  0.045220457

  Shift w.r.t. Gamma in fractional coordinates (k-lattice)
     0.000000000  0.000000000  0.000000000

 
 Subroutine IBZKPT returns following result:
 ===========================================
 
 Found      1 irreducible k-points:
 
 Following reciprocal coordinates:
            Coordinates               Weight
  0.000000  0.000000  0.000000      1.000000
 
 Following cartesian coordinates:
            Coordinates               Weight
  0.000000  0.000000  0.000000      1.000000
 
 
 Subroutine IBZKPT_HF returns following result:
 ==============================================
 
 Found      1 k-points in 1st BZ
 the following      1 k-points will be used (e.g. in the exchange kernel)
 Following reciprocal coordinates:   # in IRBZ
  0.000000  0.000000  0.000000    1.00000000   1 t-inv F


--------------------------------------------------------------------------------------------------------




 Dimension of arrays:
   k-points           NKPTS =      1   k-points in BZ     NKDIM =      1   number of bands    NBANDS=    256
   number of dos      NEDOS =    301   number of ions     NIONS =      2
   non local maximal  LDIM  =      6   non local SUM 2l+1 LMDIM =     18
   total plane-waves  NPLWV = ******
   max r-space proj   IRMAX =   6628   max aug-charges    IRDMAX=  12805
   dimension x,y,z NGX =   160 NGY =  160 NGZ =  168
   dimension x,y,z NGXF=   320 NGYF=  320 NGZF=  336
   support grid    NGXF=   320 NGYF=  320 NGZF=  336
   ions per type =               2
   NGX,Y,Z   is equivalent  to a cutoff of  12.58, 12.58, 12.63 a.u.
   NGXF,Y,Z  is equivalent  to a cutoff of  25.17, 25.17, 25.26 a.u.

 SYSTEM =  MgO-rocksalt                            
 POSCAR =  Cu                                      

 Startparameter for this run:
   NWRITE =      2    write-flag & timer
   PREC   = accura    normal or accurate (medium, high low for compatibility)
   ISTART =      0    job   : 0-new  1-cont  2-samecut
   ICHARG =      2    charge: 1-file 2-atom 10-const
   ISPIN  =      1    spin polarized calculation?
   LNONCOLLINEAR =      F non collinear calculations
   LSORBIT =      F    spin-orbit coupling
   INIWAV =      1    electr: 0-lowe 1-rand  2-diag
   LASPH  =      T    aspherical Exc in radial PAW
 Electronic Relaxation 1
   ENCUT  =  520.0 eV  38.22 Ry    6.18 a.u.  39.30 39.30 41.12*2*pi/ulx,y,z
   ENINI  =  520.0     initial cutoff
   ENAUG  =  587.0 eV  augmentation charge cutoff
   NELM   =    200;   NELMIN=  8; NELMDL= -5     # of ELM steps 
   EDIFF  = 0.1E-05   stopping-criterion for ELM
   LREAL  =      T    real-space projection
   NLSPLINE    = F    spline interpolate recip. space projectors
   LCOMPAT=      F    compatible to vasp.4.4
   GGA_COMPAT  = T    GGA compatible to vasp.4.4-vasp.4.6
   LMAXPAW     = -100 max onsite density
   LMAXMIX     =    2 max onsite mixed and CHGCAR
   VOSKOWN=      0    Vosko Wilk Nusair interpolation
   ROPT   =   -0.00025
 Ionic relaxation
   EDIFFG = 0.1E-04   stopping-criterion for IOM
   NSW    =      0    number of steps for IOM
   NBLOCK =      1;   KBLOCK =      1    inner block; outer block 
   IBRION =     -1    ionic relax: 0-MD 1-quasi-New 2-CG
   NFREE  =      0    steps in history (QN), initial steepest desc. (CG)
   ISIF   =      0    stress and relaxation
   IWAVPR =     10    prediction:  0-non 1-charg 2-wave 3-comb
   ISYM   =      2    0-nonsym 1-usesym 2-fastsym
   LCORR  =      T    Harris-Foulkes like correction to forces

   POTIM  = 0.5000    time-step for ionic-motion
   TEIN   =    0.0    initial temperature
   TEBEG  =    0.0;   TEEND  =   0.0 temperature during run
   SMASS  =  -3.00    Nose mass-parameter (am)
   estimated Nose-frequenzy (Omega)   =  0.10E-29 period in steps = 0.13E+47 mass=  -0.102E-25a.u.
   SCALEE = 1.0000    scale energy and forces
   NPACO  =    256;   APACO  = 10.0  distance and # of slots for P.C.
   PSTRESS=    0.0 pullay stress

  Mass of Ions in am
   POMASS =  63.55
  Ionic Valenz
   ZVAL   =  11.00
  Atomic Wigner-Seitz radii
   RWIGS  =  -1.00
  virtual crystal weights 
   VCA    =   1.00
   NELECT =      22.0000    total number of electrons
   NUPDOWN=      -1.0000    fix difference up-down

 DOS related values:
   EMIN   =  10.00;   EMAX   =-10.00  energy-range for DOS
   EFERMI =   0.00
   ISMEAR =     0;   SIGMA  =   0.05  broadening in eV -4-tet -1-fermi 0-gaus

 Electronic relaxation 2 (details)
   IALGO  =     58    algorithm
   LDIAG  =      T    sub-space diagonalisation (order eigenvalues)
   LSUBROT=      F    optimize rotation matrix (better conditioning)
   TURBO    =      0    0=normal 1=particle mesh
   IRESTART =      0    0=no restart 2=restart with 2 vectors
   NREBOOT  =      0    no. of reboots
   NMIN     =      0    reboot dimension
   EREF     =   0.00    reference energy to select bands
   IMIX   =      4    mixing-type and parameters
     AMIX     =   0.40;   BMIX     =  1.00
     AMIX_MAG =   1.60;   BMIX_MAG =  1.00
     AMIN     =   0.10
     WC   =   100.;   INIMIX=   1;  MIXPRE=   1;  MAXMIX= -45

 Intra band minimization:
   WEIMIN = 0.0000     energy-eigenvalue tresh-hold
   EBREAK =  0.98E-09  absolut break condition
   DEPER  =   0.30     relativ break condition  

   TIME   =   0.40     timestep for ELM

  volume/ion in A,a.u.               =    4940.81     33342.21
  Fermi-wavevector in a.u.,A,eV,Ry     =   0.213767  0.403960  0.621734  0.045696
  Thomas-Fermi vector in A             =   0.985879

 Write flags
   LWAVE        =      F    write WAVECAR
   LDOWNSAMPLE  =      F    k-point downsampling of WAVECAR
   LCHARG       =      F    write CHGCAR
   LVTOT        =      F    write LOCPOT, total local potential
   LVHAR        =      F    write LOCPOT, Hartree potential only
   LELF         =      F    write electronic localiz. function (ELF)
   LORBIT       =      0    0 simple, 1 ext, 2 COOP (PROOUT), +10 PAW based schemes


 Dipole corrections
   LMONO  =      F    monopole corrections only (constant potential shift)
   LDIPOL =      T    correct potential (dipole corrections)
   IDIPOL =      3    1-x, 2-y, 3-z, 4-all directions 
   EPSILON=  1.0000000 bulk dielectric constant

 Exchange correlation treatment:
   GGA     =    B5    GGA type
   LEXCH   =    12    internal setting for exchange type
   LIBXC   =     F    Libxc                    
   VOSKOWN =     0    Vosko Wilk Nusair interpolation
   EXXOEP  =     0    0=HF, 1=EXX-LHF (local Hartree Fock) 2=EXX OEP
   LHFCALC =     T    Hartree Fock is set to
   LSYMGRAD=     F    symmetrize gradient (conserves proper symmetry)
   PRECFOCK=normal    Normal, Fast or Accurate (Low or Medium for compatibility)
   LRHFCALC=     F    long range Hartree Fock
   LRSCOR  =     F    long range correlation only (use DFT for short range part)
   LTHOMAS =     F    Thomas Fermi screening in HF
   LMODELHF=     F    short range full HF, long range fraction AEXX
   LFOCKACE=     T    use Adeptively-Compressed-Exchange operator
   ENCUT4O =  -1.0   cutoff for four orbital integrals eV
   LMAXFOCK=     4    L truncation for augmentation on plane wave grid
   LMAXFOCKAE=  -1    L truncation for all-electron charge restoration on plane wave grid
   NMAXFOCKAE=   1    number of basis functions for all-electron charge restoration
   LFOCKAEDFT=     F  apply the AE augmentation even for DFT
   NKREDX  =     1    reduce k-point grid by
   NKREDY  =     1    reduce k-point grid by
   NKREDZ  =     1    reduce k-point grid by
   SHIFTRED=     F    shift reduced grid of Gamma
   HFKIDENT=     F    idential grid for each k-point
   ODDONLY =     F    use only odd q-grid points
   EVENONLY=     F    use only even q-grid points
   HFALPHA =   -1.0000 decay constant for conv. correction
   MCALPHA =    0.0000 extent of test-charge in conv. correction in multipole expansion
   AEXX    =    0.2000 exact exchange contribution
   HFSCREEN=    0.0000 screening length (either q_TF or 0.3 A-1)
   HFSCREENC=   0.0000 screening length for correlation (either q_TF or 0.3 A-1)
   HFRCUT  =    0.0000 spherical cutoff for potential kernel
   ALDAX   =    0.8000 LDA exchange part
   AGGAX   =    0.7200 GGA exchange part
   ALDAC   =    0.1900 LDA correlation
   AGGAC   =    0.8100 GGA correlation
   ENCUTFOCK=  -1.0 apply spherical cutoff to Coloumb kernel
   NBANDSGWLOW=     1    first orbital included in HF term
   NBLOCK_FOCK=    64    blocking factor in FOCK_ACC

 Linear response parameters
   LEPSILON=     F    determine dielectric tensor
   LRPA    =     F    only Hartree local field effects (RPA)
   LNABLA  =     F    use nabla operator in PAW spheres
   LVEL    =     F    velocity operator in full k-point grid
   CSHIFT  =0.1000    complex shift for real part using Kramers Kronig
   OMEGAMAX=  -1.0    maximum frequency
   DEG_THRESHOLD= 0.2000000E-02 threshold for treating states as degnerate
   RTIME   =   -0.100 relaxation time in fs
  (WPLASMAI=    0.000 imaginary part of plasma frequency in eV, 0.658/RTIME)
   DFIELD  = 0.0000000 0.0000000 0.0000000 field for delta impulse in time

  Optional k-point grid parameters
   LKPOINTS_OPT  =     F    use optional k-point grid
   KPOINTS_OPT_MODE=     1    mode for optional k-point grid

 Orbital magnetization related:
   ORBITALMAG=     F  switch on orbital magnetization
   LCHIMAG   =     F  perturbation theory with respect to B field
   DQ        =  0.001000  dq finite difference perturbation B field
   LLRAUG    =     F  two centre corrections for induced B field



--------------------------------------------------------------------------------------------------------


 Static calculation
 charge density and potential will be updated during run
 non-spin polarized calculation
 Conjugate gradient for all bands (Freysoldt, et al. PRB 79, 241103 (2009))
 preconditioned conjugated gradient                                        
 perform sub-space diagonalisation
    before iterative eigenvector-optimisation
 modified Broyden-mixing scheme, WC =      100.0
 initial mixing is a Kerker type mixing with AMIX =  0.4000 and BMIX =      1.0000
 Hartree-type preconditioning will be used
 using additional bands          245
 real space projection scheme for non local part
 use partial core corrections
 no Harris-corrections to forces 
 use gradient corrections 
 use of overlap-Matrix (Vanderbilt PP)
 Gauss-broadening in eV      SIGMA  =   0.05


--------------------------------------------------------------------------------------------------------


  energy-cutoff  :      520.00
  volume of cell :     9881.61
      direct lattice vectors                 reciprocal lattice vectors
    21.138852197  0.000000000  0.000000000     0.047306258  0.000000000  0.000000000
     0.000000000 21.138852197  0.000000000     0.000000000  0.047306258  0.000000000
     0.000000000  0.000000000 22.113885220     0.000000000  0.000000000  0.045220457

  length of vectors
    21.138852197 21.138852197 22.113885220     0.047306258  0.047306258  0.045220457



 k-points in units of 2pi/SCALE and weight: KPOINTS created by Atomic Simulation Env
   0.00000000  0.00000000  0.00000000       1.000

 k-points in reciprocal lattice and weights: KPOINTS created by Atomic Simulation Env
   0.00000000  0.00000000  0.00000000       1.000

 position of ions in fractional coordinates (direct lattice) 
   0.65428526  0.50000000  0.60529584
   0.54571466  0.50000000  0.60529584

 position of ions in cartesian coordinates  (Angst):
  13.83083950 10.56942610 13.38544272
  11.53578163 10.56942610 13.38544272



--------------------------------------------------------------------------------------------------------


 k-point   1 :   0.0000 0.0000 0.0000  plane waves:  265979

 maximum and minimum number of plane-waves per node :     66495    66494

 maximum number of plane-waves:    265979
 maximum index in each direction: 
   IXMAX=   39   IYMAX=   39   IZMAX=   41
   IXMIN=  -39   IYMIN=  -39   IZMIN=  -41


 real space projection operators:
  total allocation   :       1795.78 KBytes
  max/ min on nodes  :        453.94        444.66


 parallel 3D FFT for wavefunctions:
    minimum data exchange during FFTs selected (reduces bandwidth)
 parallel 3D FFT for charge:
    minimum data exchange during FFTs selected (reduces bandwidth)


 FFT grid for exact exchange (Hartree Fock) 
  NGX =120; NGY =120; NGZ =126


 Radii for the augmentation spheres in the non-local exchange
 for species   1 augmentation radius   1.179 (default was   0.943)
       energy cutoff for augmentation   2080.0

 real space projection operators:
  total allocation   :        491.02 KBytes
  max/ min on nodes  :        125.39        120.31

 Maximum index for augmentation-charges in exchange          308
  SETUP_FOCK is finished

 total amount of memory used by VASP MPI-rank0   144329. kBytes
=======================================================================

   base      :      30000. kBytes
   nonlr-proj:        961. kBytes
   fftplans  :      61791. kBytes
   grid      :      48291. kBytes
   one-center:         15. kBytes
   HF        :         64. kBytes
   wavefun   :       3207. kBytes

     INWAV:  cpu time      0.0001: real time      0.0002
 Broyden mixing: mesh for mixing (old mesh)
   NGX = 79   NGY = 79   NGZ = 83
  (NGX  =320   NGY  =320   NGZ  =336)
  gives a total of 518003 points

 initial charge density was supplied:
 charge density of overlapping atoms calculated
 number of electron      22.0000000 magnetization 
 keeping initial charge density in first step


--------------------------------------------------------------------------------------------------------


 Maximum index for non-local projection operator         1581
 Maximum index for augmentation-charges            0 (set IRDMAX)


--------------------------------------------------------------------------------------------------------


    FEWALD:  cpu time      0.0021: real time      0.0021


--------------------------------------- Iteration      1(   1)  ---------------------------------------


    POTLOK:  cpu time      0.2208: real time      0.2220
    SETDIJ:  cpu time      0.1899: real time      0.1899
    TRIAL :  cpu time      4.1046: real time      4.1055
    CORREC:  cpu time      0.0009: real time      0.0009
    --------------------------------------------
      LOOP:  cpu time      4.5181: real time      4.5207

 eigenvalue-minimisations  :   512
 total energy-change (2. order) :-0.5964967E+03  (-0.5710728E+03)
 number of electron      22.0000000 magnetization 
 augmentation part       22.0000000 magnetization 

 DIPCOR: dipole corrections for dipol
 direction  3 min pos     1,
 dipolmoment           0.000000      0.000000     -0.000036 electrons x Angstroem
 Tr[quadrupol]     -4058.964165

 energy correction for charged system         0.000000 eV
 dipol+quadrupol energy correction           -0.000000 eV
 added-field ion interaction          0.000036 eV  (added to PSCEN)


 Free energy of the ion-electron system (eV)
  ---------------------------------------------------
  alpha Z        PSCENC =         0.29607204
  Ewald energy   TEWEN  =       300.86229929
  -Hartree energ DENC   =     -2844.07734313
  -exchange      EXHF   =         0.00000000
  -V(xc)+E(xc)   XCENC  =        88.08494114
  PAW double counting   =      2456.41331976    -3314.26661633
  entropy T*S    EENTRO =        -0.00000000
  eigenvalues    EBANDS =       -61.52325691
  atomic energy  EATOM  =      2777.71391631
  ---------------------------------------------------
  free energy    TOTEN  =      -596.49666784 eV

  energy without entropy =     -596.49666784  energy(sigma->0) =     -596.49666784
  exchange ACFDT corr.  =         0.00000000  see jH, gK, PRB 81, 115126


--------------------------------------------------------------------------------------------------------




--------------------------------------- Iteration      1(   2)  ---------------------------------------


    TRIAL :  cpu time      4.4829: real time      4.4839
    CORREC:  cpu time      0.0004: real time      0.0004
    --------------------------------------------
      LOOP:  cpu time      4.4905: real time      4.5015

 eigenvalue-minimisations  :   512
 total energy-change (2. order) :-0.1172655E+03  (-0.1172655E+03)
 number of electron      22.0000000 magnetization 
 augmentation part       22.0000000 magnetization 

 DIPCOR: dipole corrections for dipol
 direction  3 min pos     1,
 dipolmoment           0.000000      0.000000     -0.000036 electrons x Angstroem
 Tr[quadrupol]     -4058.964165

 energy correction for charged system         0.000000 eV
 dipol+quadrupol energy correction           -0.000000 eV
 added-field ion interaction          0.000036 eV  (added to PSCEN)


 Free energy of the ion-electron system (eV)
  ---------------------------------------------------
  alpha Z        PSCENC =         0.29607204
  Ewald energy   TEWEN  =       300.86229929
  -Hartree energ DENC   =     -2844.07734313
  -exchange      EXHF   =         0.00000000
  -V(xc)+E(xc)   XCENC  =        88.08494114
  PAW double counting   =      2456.41331976    -3314.26661633
  entropy T*S    EENTRO =        -0.00000000
  eigenvalues    EBANDS =      -178.78878347
  atomic energy  EATOM  =      2777.71391631
  ---------------------------------------------------
  free energy    TOTEN  =      -713.76219440 eV

  energy without entropy =     -713.76219440  energy(sigma->0) =     -713.76219440
  exchange ACFDT corr.  =         0.00000000  see jH, gK, PRB 81, 115126


--------------------------------------------------------------------------------------------------------




--------------------------------------- Iteration      1(   3)  ---------------------------------------


    TRIAL :  cpu time      4.4429: real time      4.4441
    CORREC:  cpu time      0.0004: real time      0.0004
    --------------------------------------------
      LOOP:  cpu time      4.4494: real time      4.4616

 eigenvalue-minimisations  :   512
 total energy-change (2. order) :-0.1685255E+01  (-0.1685255E+01)
 number of electron      22.0000000 magnetization 
 augmentation part       22.0000000 magnetization 

 DIPCOR: dipole corrections for dipol
 direction  3 min pos     1,
 dipolmoment           0.000000      0.000000     -0.000036 electrons x Angstroem
 Tr[quadrupol]     -4058.964165

 energy correction for charged system         0.000000 eV
 dipol+quadrupol energy correction           -0.000000 eV
 added-field ion interaction          0.000036 eV  (added to PSCEN)


 Free energy of the ion-electron system (eV)
  ---------------------------------------------------
  alpha Z        PSCENC =         0.29607204
  Ewald energy   TEWEN  =       300.86229929
  -Hartree energ DENC   =     -2844.07734313
  -exchange      EXHF   =         0.00000000
  -V(xc)+E(xc)   XCENC  =        88.08494114
  PAW double counting   =      2456.41331976    -3314.26661633
  entropy T*S    EENTRO =        -0.00000000
  eigenvalues    EBANDS =      -180.47403821
  atomic energy  EATOM  =      2777.71391631
  ---------------------------------------------------
  free energy    TOTEN  =      -715.44744914 eV

  energy without entropy =     -715.44744914  energy(sigma->0) =     -715.44744914
  exchange ACFDT corr.  =         0.00000000  see jH, gK, PRB 81, 115126


--------------------------------------------------------------------------------------------------------




--------------------------------------- Iteration      1(   4)  ---------------------------------------


    TRIAL :  cpu time     23.7071: real time     23.7136
    CORREC:  cpu time      0.0004: real time      0.0004
    --------------------------------------------
      LOOP:  cpu time     23.7235: real time     23.7304

 eigenvalue-minimisations  :  1024
 total energy-change (2. order) :-0.5615331E-02  (-0.5615342E-02)
 number of electron      22.0000000 magnetization 
 augmentation part       22.0000000 magnetization 

 DIPCOR: dipole corrections for dipol
 direction  3 min pos     1,
 dipolmoment           0.000000      0.000000     -0.000036 electrons x Angstroem
 Tr[quadrupol]     -4058.964165

 energy correction for charged system         0.000000 eV
 dipol+quadrupol energy correction           -0.000000 eV
 added-field ion interaction          0.000036 eV  (added to PSCEN)


 Free energy of the ion-electron system (eV)
  ---------------------------------------------------
  alpha Z        PSCENC =         0.29607204
  Ewald energy   TEWEN  =       300.86229929
  -Hartree energ DENC   =     -2844.07734313
  -exchange      EXHF   =         0.00000000
  -V(xc)+E(xc)   XCENC  =        88.08494114
  PAW double counting   =      2456.41331976    -3314.26661633
  entropy T*S    EENTRO =        -0.00000000
  eigenvalues    EBANDS =      -180.47965355
  atomic energy  EATOM  =      2777.71391631
  ---------------------------------------------------
  free energy    TOTEN  =      -715.45306448 eV

  energy without entropy =     -715.45306448  energy(sigma->0) =     -715.45306448
  exchange ACFDT corr.  =         0.00000000  see jH, gK, PRB 81, 115126


--------------------------------------------------------------------------------------------------------




--------------------------------------- Iteration      1(   5)  ---------------------------------------


    POTLOK:  cpu time      0.2251: real time      0.2252
    SETDIJ:  cpu time      0.6014: real time      0.6014
    TRIAL :  cpu time     36.7481: real time     36.7636
    CORREC:  cpu time      0.0004: real time      0.0004
    CHARGE:  cpu time      0.7363: real time      0.7375
    --------------------------------------------
      LOOP:  cpu time     38.3163: real time     38.3455

 eigenvalue-minimisations  :   512
 total energy-change (2. order) : 0.7120259E+03  (-0.1102281E+01)
 number of electron      21.9999986 magnetization 
 augmentation part       14.5425665 magnetization 

 DIPCOR: dipole corrections for dipol
 direction  3 min pos     1,
 dipolmoment           0.000000      0.000000     -0.000036 electrons x Angstroem
 Tr[quadrupol]     -4058.964165

 energy correction for charged system         0.000000 eV
 dipol+quadrupol energy correction           -0.000000 eV
 added-field ion interaction          0.000036 eV  (added to PSCEN)


 Free energy of the ion-electron system (eV)
  ---------------------------------------------------
  alpha Z        PSCENC =         0.29607204
  Ewald energy   TEWEN  =       300.86229929
  -Hartree energ DENC   =     -2844.07734313
  -exchange      EXHF   =        56.41500647
  -V(xc)+E(xc)   XCENC  =        69.77673095
  PAW double counting   =      2474.49836831    -2673.40526462
  entropy T*S    EENTRO =        -0.00000000
  eigenvalues    EBANDS =      -165.50697552
  atomic energy  EATOM  =      2777.71391631
  ---------------------------------------------------
  free energy    TOTEN  =        -3.42718991 eV

  energy without entropy =       -3.42718991  energy(sigma->0) =       -3.42718991
  exchange ACFDT corr.  =        -0.00000000  see jH, gK, PRB 81, 115126


--------------------------------------------------------------------------------------------------------




--------------------------------------- Iteration      1(   6)  ---------------------------------------


    POTLOK:  cpu time      0.2027: real time      0.2027
    SETDIJ:  cpu time      0.5962: real time      0.5962
    TRIAL :  cpu time     60.8488: real time     61.0394
    CORREC:  cpu time     33.5787: real time     33.6030
    CHARGE:  cpu time      0.7302: real time      0.7310
    --------------------------------------------
      LOOP:  cpu time     95.9745: real time     96.1904

 eigenvalue-minimisations  :     0
 total energy-change (2. order) : 0.1103128E+01  (-0.3931343E+00)
 number of electron      21.9999986 magnetization 
 augmentation part       14.3183666 magnetization 

 DIPCOR: dipole corrections for dipol
 direction  3 min pos     1,
 dipolmoment           0.000000      0.000000     -0.002257 electrons x Angstroem
 Tr[quadrupol]     -4058.889298

 energy correction for charged system         0.000000 eV
 dipol+quadrupol energy correction           -0.000000 eV
 added-field ion interaction          0.002288 eV  (added to PSCEN)


 Free energy of the ion-electron system (eV)
  ---------------------------------------------------
  alpha Z        PSCENC =         0.29604669
  Ewald energy   TEWEN  =       300.86229929
  -Hartree energ DENC   =     -2909.39437255
  -exchange      EXHF   =        54.52688347
  -V(xc)+E(xc)   XCENC  =        71.11168239
  PAW double counting   =      2652.12080760    -2860.12170479
  entropy T*S    EENTRO =        -0.00000000
  eigenvalues    EBANDS =       -89.43962015
  atomic energy  EATOM  =      2777.71391631
  ---------------------------------------------------
  free energy    TOTEN  =        -2.32406173 eV

  energy without entropy =       -2.32406173  energy(sigma->0) =       -2.32406173
  exchange ACFDT corr.  =        -0.00000000  see jH, gK, PRB 81, 115126


--------------------------------------------------------------------------------------------------------




--------------------------------------- Iteration      1(   7)  ---------------------------------------


    POTLOK:  cpu time      0.2319: real time      0.2319
    SETDIJ:  cpu time      0.5781: real time      0.5783
    TRIAL :  cpu time     32.4229: real time     32.4476
    CORREC:  cpu time     33.6414: real time     33.6662
    CHARGE:  cpu time      0.7259: real time      0.7266
    --------------------------------------------
      LOOP:  cpu time     67.6062: real time     67.6676

 eigenvalue-minimisations  :     0
 total energy-change (2. order) :-0.4044414E+00  (-0.2688140E+00)
 number of electron      21.9999986 magnetization 
 augmentation part       14.3598850 magnetization 

 DIPCOR: dipole corrections for dipol
 direction  3 min pos     1,
 dipolmoment           0.000000      0.000000     -0.000827 electrons x Angstroem
 Tr[quadrupol]     -4059.103114

 energy correction for charged system         0.000000 eV
 dipol+quadrupol energy correction           -0.000000 eV
 added-field ion interaction          0.000839 eV  (added to PSCEN)


 Free energy of the ion-electron system (eV)
  ---------------------------------------------------
  alpha Z        PSCENC =         0.29633041
  Ewald energy   TEWEN  =       300.86229929
  -Hartree energ DENC   =     -2875.34524176
  -exchange      EXHF   =        53.89458515
  -V(xc)+E(xc)   XCENC  =        70.03361786
  PAW double counting   =      2628.47590808    -2827.60023724
  entropy T*S    EENTRO =        -0.00000000
  eigenvalues    EBANDS =      -131.05968122
  atomic energy  EATOM  =      2777.71391631
  ---------------------------------------------------
  free energy    TOTEN  =        -2.72850312 eV

  energy without entropy =       -2.72850312  energy(sigma->0) =       -2.72850312
  exchange ACFDT corr.  =        -0.00000000  see jH, gK, PRB 81, 115126


--------------------------------------------------------------------------------------------------------




--------------------------------------- Iteration      1(   8)  ---------------------------------------


    POTLOK:  cpu time      0.2293: real time      0.2294
    SETDIJ:  cpu time      0.5705: real time      0.5707
    TRIAL :  cpu time     32.2564: real time     32.2813
    CORREC:  cpu time     33.6012: real time     33.6259
    CHARGE:  cpu time      0.7268: real time      0.7280
    --------------------------------------------
      LOOP:  cpu time     67.4009: real time     67.4522

 eigenvalue-minimisations  :     0
 total energy-change (2. order) :-0.2695889E+00  (-0.6032848E-01)
 number of electron      21.9999986 magnetization 
 augmentation part       14.4084390 magnetization 

 DIPCOR: dipole corrections for dipol
 direction  3 min pos     1,
 dipolmoment           0.000000      0.000000     -0.000532 electrons x Angstroem
 Tr[quadrupol]     -4059.099392

 energy correction for charged system         0.000000 eV
 dipol+quadrupol energy correction           -0.000000 eV
 added-field ion interaction          0.000539 eV  (added to PSCEN)


 Free energy of the ion-electron system (eV)
  ---------------------------------------------------
  alpha Z        PSCENC =         0.29703368
  Ewald energy   TEWEN  =       300.86229929
  -Hartree energ DENC   =     -2865.05781294
  -exchange      EXHF   =        53.78993857
  -V(xc)+E(xc)   XCENC  =        69.97055404
  PAW double counting   =      2608.05345754    -2808.61983407
  entropy T*S    EENTRO =        -0.00000000
  eigenvalues    EBANDS =      -140.00764445
  atomic energy  EATOM  =      2777.71391631
  ---------------------------------------------------
  free energy    TOTEN  =        -2.99809203 eV

  energy without entropy =       -2.99809203  energy(sigma->0) =       -2.99809203
  exchange ACFDT corr.  =        -0.00000000  see jH, gK, PRB 81, 115126


--------------------------------------------------------------------------------------------------------




--------------------------------------- Iteration      1(   9)  ---------------------------------------


    POTLOK:  cpu time      0.2294: real time      0.2295
    SETDIJ:  cpu time      0.5718: real time      0.5721
    TRIAL :  cpu time     32.9441: real time     32.9711
    CORREC:  cpu time     33.6740: real time     33.7017
    CHARGE:  cpu time      0.7259: real time      0.7263
    --------------------------------------------
      LOOP:  cpu time     68.1586: real time     68.2248

 eigenvalue-minimisations  :     0
 total energy-change (2. order) :-0.6061855E-01  (-0.2737874E-01)
 number of electron      21.9999986 magnetization 
 augmentation part       14.3570395 magnetization 

 DIPCOR: dipole corrections for dipol
 direction  3 min pos     1,
 dipolmoment           0.000000      0.000000     -0.000106 electrons x Angstroem
 Tr[quadrupol]     -4059.052336

 energy correction for charged system         0.000000 eV
 dipol+quadrupol energy correction           -0.000000 eV
 added-field ion interaction          0.000107 eV  (added to PSCEN)


 Free energy of the ion-electron system (eV)
  ---------------------------------------------------
  alpha Z        PSCENC =         0.29649116
  Ewald energy   TEWEN  =       300.86229929
  -Hartree energ DENC   =     -2869.28686811
  -exchange      EXHF   =        53.88419801
  -V(xc)+E(xc)   XCENC  =        70.15816737
  PAW double counting   =      2609.53090050    -2812.09223213
  entropy T*S    EENTRO =        -0.00000000
  eigenvalues    EBANDS =      -134.12558299
  atomic energy  EATOM  =      2777.71391631
  ---------------------------------------------------
  free energy    TOTEN  =        -3.05871058 eV

  energy without entropy =       -3.05871058  energy(sigma->0) =       -3.05871058
  exchange ACFDT corr.  =        -0.00000000  see jH, gK, PRB 81, 115126


--------------------------------------------------------------------------------------------------------




--------------------------------------- Iteration      1(  10)  ---------------------------------------


    POTLOK:  cpu time      0.2263: real time      0.2265
    SETDIJ:  cpu time      0.5679: real time      0.5679
    TRIAL :  cpu time     32.7226: real time     32.7475
    CORREC:  cpu time     33.5779: real time     33.5937
    CHARGE:  cpu time      0.7232: real time      0.7236
    --------------------------------------------
      LOOP:  cpu time     67.8345: real time     67.8761

 eigenvalue-minimisations  :     0
 total energy-change (2. order) :-0.2731842E-01  (-0.2778342E-01)
 number of electron      21.9999986 magnetization 
 augmentation part       14.3627194 magnetization 

 DIPCOR: dipole corrections for dipol
 direction  3 min pos     1,
 dipolmoment           0.000000      0.000000     -0.000032 electrons x Angstroem
 Tr[quadrupol]     -4059.065943

 energy correction for charged system         0.000000 eV
 dipol+quadrupol energy correction           -0.000000 eV
 added-field ion interaction          0.000033 eV  (added to PSCEN)


 Free energy of the ion-electron system (eV)
  ---------------------------------------------------
  alpha Z        PSCENC =         0.29626059
  Ewald energy   TEWEN  =       300.86229929
  -Hartree energ DENC   =     -2861.82616933
  -exchange      EXHF   =        53.74300496
  -V(xc)+E(xc)   XCENC  =        69.92105163
  PAW double counting   =      2605.13417993    -2805.75215691
  entropy T*S    EENTRO =        -0.00000000
  eigenvalues    EBANDS =      -143.17841546
  atomic energy  EATOM  =      2777.71391631
  ---------------------------------------------------
  free energy    TOTEN  =        -3.08602900 eV

  energy without entropy =       -3.08602900  energy(sigma->0) =       -3.08602900
  exchange ACFDT corr.  =        -0.00000000  see jH, gK, PRB 81, 115126


--------------------------------------------------------------------------------------------------------




--------------------------------------- Iteration      1(  11)  ---------------------------------------


    POTLOK:  cpu time      0.2222: real time      0.2223
    SETDIJ:  cpu time      0.5797: real time      0.5797
    TRIAL :  cpu time     32.7058: real time     32.7219
    CORREC:  cpu time     33.6724: real time     33.6884
    CHARGE:  cpu time      0.7251: real time      0.7255
    --------------------------------------------
      LOOP:  cpu time     67.9096: real time     67.9543

 eigenvalue-minimisations  :     0
 total energy-change (2. order) :-0.2778896E-01  (-0.4553128E-02)
 number of electron      21.9999986 magnetization 
 augmentation part       14.3806375 magnetization 

 DIPCOR: dipole corrections for dipol
 direction  3 min pos     1,
 dipolmoment           0.000000      0.000000     -0.000007 electrons x Angstroem
 Tr[quadrupol]     -4059.056722

 energy correction for charged system         0.000000 eV
 dipol+quadrupol energy correction           -0.000000 eV
 added-field ion interaction          0.000007 eV  (added to PSCEN)


 Free energy of the ion-electron system (eV)
  ---------------------------------------------------
  alpha Z        PSCENC =         0.29604627
  Ewald energy   TEWEN  =       300.86229929
  -Hartree energ DENC   =     -2861.18654355
  -exchange      EXHF   =        53.74142717
  -V(xc)+E(xc)   XCENC  =        69.93320452
  PAW double counting   =      2604.04761773    -2804.78768218
  entropy T*S    EENTRO =        -0.00000000
  eigenvalues    EBANDS =      -143.73410352
  atomic energy  EATOM  =      2777.71391631
  ---------------------------------------------------
  free energy    TOTEN  =        -3.11381795 eV

  energy without entropy =       -3.11381795  energy(sigma->0) =       -3.11381795
  exchange ACFDT corr.  =        -0.00000000  see jH, gK, PRB 81, 115126


--------------------------------------------------------------------------------------------------------




--------------------------------------- Iteration      1(  12)  ---------------------------------------


    POTLOK:  cpu time      0.2196: real time      0.2196
    SETDIJ:  cpu time      0.5860: real time      0.5861
    TRIAL :  cpu time     32.4152: real time     32.4315
    CORREC:  cpu time     33.9416: real time     33.9587
    CHARGE:  cpu time      0.7237: real time      0.7241
    --------------------------------------------
      LOOP:  cpu time     67.9030: real time     67.9372

 eigenvalue-minimisations  :     0
 total energy-change (2. order) :-0.4551035E-02  (-0.2503217E-02)
 number of electron      21.9999986 magnetization 
 augmentation part       14.3681439 magnetization 

 DIPCOR: dipole corrections for dipol
 direction  3 min pos     1,
 dipolmoment           0.000000      0.000000     -0.000008 electrons x Angstroem
 Tr[quadrupol]     -4059.032265

 energy correction for charged system         0.000000 eV
 dipol+quadrupol energy correction           -0.000000 eV
 added-field ion interaction          0.000008 eV  (added to PSCEN)


 Free energy of the ion-electron system (eV)
  ---------------------------------------------------
  alpha Z        PSCENC =         0.29604361
  Ewald energy   TEWEN  =       300.86229929
  -Hartree energ DENC   =     -2862.87359553
  -exchange      EXHF   =        53.77681586
  -V(xc)+E(xc)   XCENC  =        70.00046404
  PAW double counting   =      2604.93823757    -2806.32197218
  entropy T*S    EENTRO =        -0.00000000
  eigenvalues    EBANDS =      -141.51057797
  atomic energy  EATOM  =      2777.71391631
  ---------------------------------------------------
  free energy    TOTEN  =        -3.11836899 eV

  energy without entropy =       -3.11836899  energy(sigma->0) =       -3.11836899
  exchange ACFDT corr.  =        -0.00000000  see jH, gK, PRB 81, 115126


--------------------------------------------------------------------------------------------------------




--------------------------------------- Iteration      1(  13)  ---------------------------------------


    POTLOK:  cpu time      0.2298: real time      0.2298
    SETDIJ:  cpu time      0.5714: real time      0.5714
    TRIAL :  cpu time     32.7829: real time     32.7994
    CORREC:  cpu time     33.7969: real time     33.8134
    CHARGE:  cpu time      0.7225: real time      0.7239
    --------------------------------------------
      LOOP:  cpu time     68.1105: real time     68.1563

 eigenvalue-minimisations  :     0
 total energy-change (2. order) :-0.2505044E-02  (-0.8900362E-03)
 number of electron      21.9999986 magnetization 
 augmentation part       14.3660389 magnetization 

 DIPCOR: dipole corrections for dipol
 direction  3 min pos     1,
 dipolmoment           0.000000      0.000000     -0.000005 electrons x Angstroem
 Tr[quadrupol]     -4059.039083

 energy correction for charged system         0.000000 eV
 dipol+quadrupol energy correction           -0.000000 eV
 added-field ion interaction          0.000005 eV  (added to PSCEN)


 Free energy of the ion-electron system (eV)
  ---------------------------------------------------
  alpha Z        PSCENC =         0.29604301
  Ewald energy   TEWEN  =       300.86229929
  -Hartree energ DENC   =     -2860.76938333
  -exchange      EXHF   =        53.73679074
  -V(xc)+E(xc)   XCENC  =        69.93459945
  PAW double counting   =      2603.65793179    -2804.53182557
  entropy T*S    EENTRO =        -0.00000000
  eigenvalues    EBANDS =      -144.02124572
  atomic energy  EATOM  =      2777.71391631
  ---------------------------------------------------
  free energy    TOTEN  =        -3.12087403 eV

  energy without entropy =       -3.12087403  energy(sigma->0) =       -3.12087403
  exchange ACFDT corr.  =        -0.00000000  see jH, gK, PRB 81, 115126


--------------------------------------------------------------------------------------------------------




--------------------------------------- Iteration      1(  14)  ---------------------------------------


    POTLOK:  cpu time      0.2146: real time      0.2146
    SETDIJ:  cpu time      0.5920: real time      0.5920
    TRIAL :  cpu time     32.5971: real time     32.6142
    CORREC:  cpu time     33.7471: real time     33.7644
    CHARGE:  cpu time      0.7260: real time      0.7264
    --------------------------------------------
      LOOP:  cpu time     67.8824: real time     67.9282

 eigenvalue-minimisations  :     0
 total energy-change (2. order) :-0.8904480E-03  (-0.1823299E-03)
 number of electron      21.9999986 magnetization 
 augmentation part       14.3704998 magnetization 

 DIPCOR: dipole corrections for dipol
 direction  3 min pos     1,
 dipolmoment           0.000000      0.000000     -0.000005 electrons x Angstroem
 Tr[quadrupol]     -4059.041304

 energy correction for charged system         0.000000 eV
 dipol+quadrupol energy correction           -0.000000 eV
 added-field ion interaction          0.000005 eV  (added to PSCEN)


 Free energy of the ion-electron system (eV)
  ---------------------------------------------------
  alpha Z        PSCENC =         0.29604092
  Ewald energy   TEWEN  =       300.86229929
  -Hartree energ DENC   =     -2860.22102479
  -exchange      EXHF   =        53.72593237
  -V(xc)+E(xc)   XCENC  =        69.91959301
  PAW double counting   =      2603.08530747    -2803.87556395
  entropy T*S    EENTRO =        -0.00000000
  eigenvalues    EBANDS =      -144.62826512
  atomic energy  EATOM  =      2777.71391631
  ---------------------------------------------------
  free energy    TOTEN  =        -3.12176448 eV

  energy without entropy =       -3.12176448  energy(sigma->0) =       -3.12176448
  exchange ACFDT corr.  =        -0.00000000  see jH, gK, PRB 81, 115126


--------------------------------------------------------------------------------------------------------




--------------------------------------- Iteration      1(  15)  ---------------------------------------


    POTLOK:  cpu time      0.2303: real time      0.2303
    SETDIJ:  cpu time      0.5647: real time      0.5647
    TRIAL :  cpu time     32.5168: real time     32.5341
    CORREC:  cpu time     33.7341: real time     33.7517
    CHARGE:  cpu time      0.7252: real time      0.7256
    --------------------------------------------
      LOOP:  cpu time     67.7766: real time     67.8234

 eigenvalue-minimisations  :     0
 total energy-change (2. order) :-0.1829605E-03  (-0.1638483E-03)
 number of electron      21.9999986 magnetization 
 augmentation part       14.3691313 magnetization 

 DIPCOR: dipole corrections for dipol
 direction  3 min pos     1,
 dipolmoment           0.000000      0.000000     -0.000005 electrons x Angstroem
 Tr[quadrupol]     -4059.040436

 energy correction for charged system         0.000000 eV
 dipol+quadrupol energy correction           -0.000000 eV
 added-field ion interaction          0.000005 eV  (added to PSCEN)


 Free energy of the ion-electron system (eV)
  ---------------------------------------------------
  alpha Z        PSCENC =         0.29604074
  Ewald energy   TEWEN  =       300.86229929
  -Hartree energ DENC   =     -2860.81567294
  -exchange      EXHF   =        53.73719777
  -V(xc)+E(xc)   XCENC  =        69.93952946
  PAW double counting   =      2603.44529154    -2804.41180268
  entropy T*S    EENTRO =        -0.00000000
  eigenvalues    EBANDS =      -143.88874694
  atomic energy  EATOM  =      2777.71391631
  ---------------------------------------------------
  free energy    TOTEN  =        -3.12194744 eV

  energy without entropy =       -3.12194744  energy(sigma->0) =       -3.12194744
  exchange ACFDT corr.  =        -0.00000000  see jH, gK, PRB 81, 115126


--------------------------------------------------------------------------------------------------------




--------------------------------------- Iteration      1(  16)  ---------------------------------------


    POTLOK:  cpu time      0.2203: real time      0.2203
    SETDIJ:  cpu time      0.5791: real time      0.5791
    TRIAL :  cpu time     32.7266: real time     32.7421
    CORREC:  cpu time     33.8340: real time     33.8524
    CHARGE:  cpu time      0.7264: real time      0.7267
    --------------------------------------------
      LOOP:  cpu time     68.1030: real time     68.1376

 eigenvalue-minimisations  :     0
 total energy-change (2. order) :-0.1640246E-03  (-0.4610460E-04)
 number of electron      21.9999986 magnetization 
 augmentation part       14.3672647 magnetization 

 DIPCOR: dipole corrections for dipol
 direction  3 min pos     1,
 dipolmoment           0.000000      0.000000     -0.000004 electrons x Angstroem
 Tr[quadrupol]     -4059.040208

 energy correction for charged system         0.000000 eV
 dipol+quadrupol energy correction           -0.000000 eV
 added-field ion interaction          0.000005 eV  (added to PSCEN)


 Free energy of the ion-electron system (eV)
  ---------------------------------------------------
  alpha Z        PSCENC =         0.29604055
  Ewald energy   TEWEN  =       300.86229929
  -Hartree energ DENC   =     -2860.77345664
  -exchange      EXHF   =        53.73548517
  -V(xc)+E(xc)   XCENC  =        69.93558974
  PAW double counting   =      2603.59713510    -2804.52332633
  entropy T*S    EENTRO =        -0.00000000
  eigenvalues    EBANDS =      -143.96579465
  atomic energy  EATOM  =      2777.71391631
  ---------------------------------------------------
  free energy    TOTEN  =        -3.12211147 eV

  energy without entropy =       -3.12211147  energy(sigma->0) =       -3.12211147
  exchange ACFDT corr.  =        -0.00000000  see jH, gK, PRB 81, 115126


--------------------------------------------------------------------------------------------------------




--------------------------------------- Iteration      1(  17)  ---------------------------------------


    POTLOK:  cpu time      0.2200: real time      0.2200
    SETDIJ:  cpu time      0.5750: real time      0.5750
    TRIAL :  cpu time     32.7937: real time     32.8111
    CORREC:  cpu time     33.9632: real time     33.9792
    CHARGE:  cpu time      0.7250: real time      0.7254
    --------------------------------------------
      LOOP:  cpu time     68.2822: real time     68.3274

 eigenvalue-minimisations  :     0
 total energy-change (2. order) :-0.4679649E-04  (-0.2976347E-04)
 number of electron      21.9999986 magnetization 
 augmentation part       14.3685359 magnetization 

 DIPCOR: dipole corrections for dipol
 direction  3 min pos     1,
 dipolmoment           0.000000      0.000000     -0.000004 electrons x Angstroem
 Tr[quadrupol]     -4059.041669

 energy correction for charged system         0.000000 eV
 dipol+quadrupol energy correction           -0.000000 eV
 added-field ion interaction          0.000004 eV  (added to PSCEN)


 Free energy of the ion-electron system (eV)
  ---------------------------------------------------
  alpha Z        PSCENC =         0.29604041
  Ewald energy   TEWEN  =       300.86229929
  -Hartree energ DENC   =     -2860.54376739
  -exchange      EXHF   =        53.73101226
  -V(xc)+E(xc)   XCENC  =        69.92806110
  PAW double counting   =      2603.49593350    -2804.35415157
  entropy T*S    EENTRO =        -0.00000000
  eigenvalues    EBANDS =      -144.25150217
  atomic energy  EATOM  =      2777.71391631
  ---------------------------------------------------
  free energy    TOTEN  =        -3.12215826 eV

  energy without entropy =       -3.12215826  energy(sigma->0) =       -3.12215826
  exchange ACFDT corr.  =        -0.00000000  see jH, gK, PRB 81, 115126


--------------------------------------------------------------------------------------------------------




--------------------------------------- Iteration      1(  18)  ---------------------------------------


    POTLOK:  cpu time      0.2235: real time      0.2235
    SETDIJ:  cpu time      0.5760: real time      0.5760
    TRIAL :  cpu time     32.7306: real time     32.7477
    CORREC:  cpu time     33.6224: real time     33.6396
    CHARGE:  cpu time      0.7263: real time      0.7268
    --------------------------------------------
      LOOP:  cpu time     67.8838: real time     67.9305

 eigenvalue-minimisations  :     0
 total energy-change (2. order) :-0.2941221E-04  (-0.2088317E-04)
 number of electron      21.9999986 magnetization 
 augmentation part       14.3689730 magnetization 

 DIPCOR: dipole corrections for dipol
 direction  3 min pos     1,
 dipolmoment           0.000000      0.000000     -0.000004 electrons x Angstroem
 Tr[quadrupol]     -4059.041530

 energy correction for charged system         0.000000 eV
 dipol+quadrupol energy correction           -0.000000 eV
 added-field ion interaction          0.000004 eV  (added to PSCEN)


 Free energy of the ion-electron system (eV)
  ---------------------------------------------------
  alpha Z        PSCENC =         0.29604037
  Ewald energy   TEWEN  =       300.86229929
  -Hartree energ DENC   =     -2860.72362051
  -exchange      EXHF   =        53.73449892
  -V(xc)+E(xc)   XCENC  =        69.93424371
  PAW double counting   =      2603.62670093    -2804.53877499
  entropy T*S    EENTRO =        -0.00000000
  eigenvalues    EBANDS =      -144.02749170
  atomic energy  EATOM  =      2777.71391631
  ---------------------------------------------------
  free energy    TOTEN  =        -3.12218768 eV

  energy without entropy =       -3.12218768  energy(sigma->0) =       -3.12218768
  exchange ACFDT corr.  =        -0.00000000  see jH, gK, PRB 81, 115126


--------------------------------------------------------------------------------------------------------




--------------------------------------- Iteration      1(  19)  ---------------------------------------


    POTLOK:  cpu time      0.2282: real time      0.2282
    SETDIJ:  cpu time      0.5747: real time      0.5747
    TRIAL :  cpu time     32.9202: real time     32.9400
    CORREC:  cpu time     33.9718: real time     33.9891
    CHARGE:  cpu time      0.7246: real time      0.7250
    --------------------------------------------
      LOOP:  cpu time     68.4266: real time     68.4736

 eigenvalue-minimisations  :     0
 total energy-change (2. order) :-0.1898999E-04  (-0.5743883E-05)
 number of electron      21.9999986 magnetization 
 augmentation part       14.3681973 magnetization 

 DIPCOR: dipole corrections for dipol
 direction  3 min pos     1,
 dipolmoment           0.000000      0.000000     -0.000004 electrons x Angstroem
 Tr[quadrupol]     -4059.041426

 energy correction for charged system         0.000000 eV
 dipol+quadrupol energy correction           -0.000000 eV
 added-field ion interaction          0.000004 eV  (added to PSCEN)


 Free energy of the ion-electron system (eV)
  ---------------------------------------------------
  alpha Z        PSCENC =         0.29604022
  Ewald energy   TEWEN  =       300.86229929
  -Hartree energ DENC   =     -2860.81809213
  -exchange      EXHF   =        53.73601359
  -V(xc)+E(xc)   XCENC  =        69.93653998
  PAW double counting   =      2603.75393075    -2804.69249941
  entropy T*S    EENTRO =        -0.00000000
  eigenvalues    EBANDS =      -143.91035527
  atomic energy  EATOM  =      2777.71391631
  ---------------------------------------------------
  free energy    TOTEN  =        -3.12220667 eV

  energy without entropy =       -3.12220667  energy(sigma->0) =       -3.12220667
  exchange ACFDT corr.  =        -0.00000000  see jH, gK, PRB 81, 115126


--------------------------------------------------------------------------------------------------------




--------------------------------------- Iteration      1(  20)  ---------------------------------------


    POTLOK:  cpu time      0.2233: real time      0.2233
    SETDIJ:  cpu time      0.5843: real time      0.5843
    TRIAL :  cpu time     32.4101: real time     32.4265
    CORREC:  cpu time     33.4239: real time     33.4402
    CHARGE:  cpu time      0.7257: real time      0.7261
    --------------------------------------------
      LOOP:  cpu time     67.3741: real time     67.4175

 eigenvalue-minimisations  :     0
 total energy-change (2. order) :-0.5398358E-05  (-0.6468116E-05)
 number of electron      21.9999986 magnetization 
 augmentation part       14.3679962 magnetization 

 DIPCOR: dipole corrections for dipol
 direction  3 min pos     1,
 dipolmoment           0.000000      0.000000     -0.000004 electrons x Angstroem
 Tr[quadrupol]     -4059.041667

 energy correction for charged system         0.000000 eV
 dipol+quadrupol energy correction           -0.000000 eV
 added-field ion interaction          0.000004 eV  (added to PSCEN)


 Free energy of the ion-electron system (eV)
  ---------------------------------------------------
  alpha Z        PSCENC =         0.29604021
  Ewald energy   TEWEN  =       300.86229929
  -Hartree energ DENC   =     -2860.72406093
  -exchange      EXHF   =        53.73410650
  -V(xc)+E(xc)   XCENC  =        69.93325711
  PAW double counting   =      2603.72120421    -2804.63264614
  entropy T*S    EENTRO =        -0.00000000
  eigenvalues    EBANDS =      -144.02632862
  atomic energy  EATOM  =      2777.71391631
  ---------------------------------------------------
  free energy    TOTEN  =        -3.12221206 eV

  energy without entropy =       -3.12221206  energy(sigma->0) =       -3.12221206
  exchange ACFDT corr.  =        -0.00000000  see jH, gK, PRB 81, 115126


--------------------------------------------------------------------------------------------------------




--------------------------------------- Iteration      1(  21)  ---------------------------------------


    POTLOK:  cpu time      0.2228: real time      0.2228
    SETDIJ:  cpu time      0.5887: real time      0.5887
    TRIAL :  cpu time     32.7412: real time     32.7578
    CORREC:  cpu time     33.5906: real time     33.6083
    CHARGE:  cpu time      0.7264: real time      0.7268
    --------------------------------------------
      LOOP:  cpu time     67.8863: real time     67.9214

 eigenvalue-minimisations  :     0
 total energy-change (2. order) :-0.6333071E-05  (-0.2080197E-05)
 number of electron      21.9999986 magnetization 
 augmentation part       14.3683628 magnetization 

 DIPCOR: dipole corrections for dipol
 direction  3 min pos     1,
 dipolmoment           0.000000      0.000000     -0.000004 electrons x Angstroem
 Tr[quadrupol]     -4059.042079

 energy correction for charged system         0.000000 eV
 dipol+quadrupol energy correction           -0.000000 eV
 added-field ion interaction          0.000004 eV  (added to PSCEN)


 Free energy of the ion-electron system (eV)
  ---------------------------------------------------
  alpha Z        PSCENC =         0.29604021
  Ewald energy   TEWEN  =       300.86229929
  -Hartree energ DENC   =     -2860.69817056
  -exchange      EXHF   =        53.73363538
  -V(xc)+E(xc)   XCENC  =        69.93260907
  PAW double counting   =      2603.72614089    -2804.63220629
  entropy T*S    EENTRO =        -0.00000000
  eigenvalues    EBANDS =      -144.05648270
  atomic energy  EATOM  =      2777.71391631
  ---------------------------------------------------
  free energy    TOTEN  =        -3.12221840 eV

  energy without entropy =       -3.12221840  energy(sigma->0) =       -3.12221840
  exchange ACFDT corr.  =        -0.00000000  see jH, gK, PRB 81, 115126


--------------------------------------------------------------------------------------------------------




--------------------------------------- Iteration      1(  22)  ---------------------------------------


    POTLOK:  cpu time      0.2141: real time      0.2141
    SETDIJ:  cpu time      0.5907: real time      0.5908
    TRIAL :  cpu time     32.5518: real time     32.5683
    CORREC:  cpu time     33.7989: real time     33.8160
    CHARGE:  cpu time      0.7253: real time      0.7264
    --------------------------------------------
      LOOP:  cpu time     67.8882: real time     67.9323

 eigenvalue-minimisations  :     0
 total energy-change (2. order) :-0.2068362E-05  (-0.1481711E-05)
 number of electron      21.9999986 magnetization 
 augmentation part       14.3683674 magnetization 

 DIPCOR: dipole corrections for dipol
 direction  3 min pos     1,
 dipolmoment           0.000000      0.000000     -0.000004 electrons x Angstroem
 Tr[quadrupol]     -4059.041907

 energy correction for charged system         0.000000 eV
 dipol+quadrupol energy correction           -0.000000 eV
 added-field ion interaction          0.000004 eV  (added to PSCEN)


 Free energy of the ion-electron system (eV)
  ---------------------------------------------------
  alpha Z        PSCENC =         0.29604021
  Ewald energy   TEWEN  =       300.86229929
  -Hartree energ DENC   =     -2860.74951517
  -exchange      EXHF   =        53.73463797
  -V(xc)+E(xc)   XCENC  =        69.93430809
  PAW double counting   =      2603.76600131    -2804.68738371
  entropy T*S    EENTRO =        -0.00000000
  eigenvalues    EBANDS =      -143.99252477
  atomic energy  EATOM  =      2777.71391631
  ---------------------------------------------------
  free energy    TOTEN  =        -3.12222046 eV

  energy without entropy =       -3.12222046  energy(sigma->0) =       -3.12222046
  exchange ACFDT corr.  =        -0.00000000  see jH, gK, PRB 81, 115126


--------------------------------------------------------------------------------------------------------




--------------------------------------- Iteration      1(  23)  ---------------------------------------


    POTLOK:  cpu time      0.2209: real time      0.2209
    SETDIJ:  cpu time      0.5855: real time      0.5855
    TRIAL :  cpu time     32.5963: real time     32.6121
    CORREC:  cpu time     33.9641: real time     33.9870
    EDDIAG:  cpu time     32.3744: real time     32.4024
    CHARGE:  cpu time      0.7213: real time      0.7221
    --------------------------------------------
      LOOP:  cpu time    100.4787: real time    100.5465

 eigenvalue-minimisations  :     0
 total energy-change (2. order) :-0.8423103E-06  (-0.9284455E-06)
 number of electron      21.9999986 magnetization 
 augmentation part       14.3680688 magnetization 

 DIPCOR: dipole corrections for dipol
 direction  3 min pos     1,
 dipolmoment           0.000000      0.000000     -0.000004 electrons x Angstroem
 Tr[quadrupol]     -4059.041699

 energy correction for charged system         0.000000 eV
 dipol+quadrupol energy correction           -0.000000 eV
 added-field ion interaction          0.000004 eV  (added to PSCEN)


 Free energy of the ion-electron system (eV)
  ---------------------------------------------------
  alpha Z        PSCENC =         0.29604021
  Ewald energy   TEWEN  =       300.86229929
  -Hartree energ DENC   =     -2860.75578556
  -exchange      EXHF   =        53.73402239
  -V(xc)+E(xc)   XCENC  =        69.93432620
  PAW double counting   =      2603.77889974    -2804.70165611
  entropy T*S    EENTRO =        -0.00000000
  eigenvalues    EBANDS =      -143.98500259
  atomic energy  EATOM  =      2777.71391631
  ---------------------------------------------------
  free energy    TOTEN  =        -3.12222131 eV

  energy without entropy =       -3.12222131  energy(sigma->0) =       -3.12222131
  exchange ACFDT corr.  =        -0.00000000  see jH, gK, PRB 81, 115126


--------------------------------------------------------------------------------------------------------


  average scaling for gradient   1.0678


 average (electrostatic) potential at core
  the test charge radii are     0.9430
  (the norm of the test charge is              1.0000)
       1 -66.9261       2 -66.9261



 E-fermi :  -5.5302     XC(G=0):  -0.1018     alpha+bet : -0.0321

 Fermi energy:        -5.5301822563

 k-point     1 :       0.0000    0.0000    0.0000
  band No.  band energies     occupation 
      1      -7.4715      2.00000
      2      -7.0525      2.00000
      3      -7.0525      2.00000
      4      -6.6247      2.00000
      5      -6.6247      2.00000
      6      -6.4357      2.00000
      7      -6.4357      2.00000
      8      -6.2131      2.00000
      9      -6.2131      2.00000
     10      -6.1242      2.00000
     11      -5.7782      2.00000
     12      -2.5279      0.00000
     13      -0.6378      0.00000
     14      -0.6349      0.00000
     15      -0.1670      0.00000
     16       0.0970      0.00000
     17       0.3370      0.00000
     18       0.3472      0.00000
     19       0.3495      0.00000
     20       0.3523      0.00000
     21       0.3814      0.00000
     22       0.4659      0.00000
     23       0.5804      0.00000
     24       0.5974      0.00000
     25       0.6416      0.00000
     26       0.6519      0.00000
     27       0.6557      0.00000
     28       0.6594      0.00000
     29       0.6697      0.00000
     30       0.6809      0.00000
     31       0.6874      0.00000
     32       0.7289      0.00000
     33       0.7510      0.00000
     34       0.8202      0.00000
     35       0.8854      0.00000
     36       0.8870      0.00000
     37       0.9713      0.00000
     38       0.9860      0.00000
     39       0.9938      0.00000
     40       1.0412      0.00000
     41       1.0507      0.00000
     42       1.0523      0.00000
     43       1.2205      0.00000
     44       1.2539      0.00000
     45       1.2770      0.00000
     46       1.2842      0.00000
     47       1.3598      0.00000
     48       1.3680      0.00000
     49       1.3853      0.00000
     50       1.3922      0.00000
     51       1.5059      0.00000
     52       1.5288      0.00000
     53       1.5547      0.00000
     54       1.5693      0.00000
     55       1.5742      0.00000
     56       1.5862      0.00000
     57       1.6164      0.00000
     58       1.6225      0.00000
     59       1.6430      0.00000
     60       1.6470      0.00000
     61       1.6473      0.00000
     62       1.6489      0.00000
     63       1.6754      0.00000
     64       1.6890      0.00000
     65       1.6905      0.00000
     66       1.6916      0.00000
     67       1.6921      0.00000
     68       1.7136      0.00000
     69       1.7287      0.00000
     70       1.7389      0.00000
     71       1.7526      0.00000
     72       1.7854      0.00000
     73       1.7985      0.00000
     74       1.7998      0.00000
     75       1.8445      0.00000
     76       1.8774      0.00000
     77       1.8958      0.00000
     78       1.9260      0.00000
     79       1.9279      0.00000
     80       1.9295      0.00000
     81       1.9527      0.00000
     82       1.9580      0.00000
     83       1.9708      0.00000
     84       1.9755      0.00000
     85       1.9777      0.00000
     86       1.9788      0.00000
     87       1.9885      0.00000
     88       1.9937      0.00000
     89       1.9991      0.00000
     90       2.0031      0.00000
     91       2.0063      0.00000
     92       2.0335      0.00000
     93       2.0928      0.00000
     94       2.1362      0.00000
     95       2.2000      0.00000
     96       2.2438      0.00000
     97       2.2528      0.00000
     98       2.3088      0.00000
     99       2.4833      0.00000
    100       2.5206      0.00000
    101       2.5483      0.00000
    102       2.5665      0.00000
    103       2.5683      0.00000
    104       2.6227      0.00000
    105       2.6356      0.00000
    106       2.6596      0.00000
    107       2.6759      0.00000
    108       2.7033      0.00000
    109       2.7079      0.00000
    110       2.7509      0.00000
    111       2.7671      0.00000
    112       2.7679      0.00000
    113       2.7861      0.00000
    114       2.8120      0.00000
    115       2.8229      0.00000
    116       2.8787      0.00000
    117       2.8793      0.00000
    118       2.8830      0.00000
    119       2.9096      0.00000
    120       2.9106      0.00000
    121       2.9135      0.00000
    122       2.9190      0.00000
    123       2.9230      0.00000
    124       2.9289      0.00000
    125       2.9337      0.00000
    126       2.9469      0.00000
    127       2.9577      0.00000
    128       2.9675      0.00000
    129       2.9691      0.00000
    130       2.9779      0.00000
    131       2.9886      0.00000
    132       2.9967      0.00000
    133       2.9989      0.00000
    134       2.9993      0.00000
    135       3.0006      0.00000
    136       3.0566      0.00000
    137       3.0595      0.00000
    138       3.0788      0.00000
    139       3.0838      0.00000
    140       3.0892      0.00000
    141       3.1149      0.00000
    142       3.1160      0.00000
    143       3.1165      0.00000
    144       3.1395      0.00000
    145       3.1687      0.00000
    146       3.2145      0.00000
    147       3.2273      0.00000
    148       3.2551      0.00000
    149       3.2862      0.00000
    150       3.3044      0.00000
    151       3.3105      0.00000
    152       3.3172      0.00000
    153       3.3382      0.00000
    154       3.3417      0.00000
    155       3.3426      0.00000
    156       3.3583      0.00000
    157       3.3590      0.00000
    158       3.3614      0.00000
    159       3.3631      0.00000
    160       3.3692      0.00000
    161       3.3701      0.00000
    162       3.4004      0.00000
    163       3.4095      0.00000
    164       3.4240      0.00000
    165       3.4270      0.00000
    166       3.4363      0.00000
    167       3.4841      0.00000
    168       3.4947      0.00000
    169       3.5158      0.00000
    170       3.5214      0.00000
    171       3.5637      0.00000
    172       3.5699      0.00000
    173       3.6059      0.00000
    174       3.6183      0.00000
    175       3.6303      0.00000
    176       3.6324      0.00000
    177       3.6394      0.00000
    178       3.6483      0.00000
    179       3.6658      0.00000
    180       3.6746      0.00000
    181       3.6783      0.00000
    182       3.7367      0.00000
    183       3.7413      0.00000
    184       3.7447      0.00000
    185       3.7509      0.00000
    186       3.7828      0.00000
    187       3.7966      0.00000
    188       3.8514      0.00000
    189       3.8550      0.00000
    190       3.8681      0.00000
    191       3.9319      0.00000
    192       3.9603      0.00000
    193       3.9673      0.00000
    194       3.9718      0.00000
    195       3.9728      0.00000
    196       4.0084      0.00000
    197       4.0249      0.00000
    198       4.0354      0.00000
    199       4.0673      0.00000
    200       4.0710      0.00000
    201       4.1105      0.00000
    202       4.1684      0.00000
    203       4.1761      0.00000
    204       4.1852      0.00000
    205       4.1998      0.00000
    206       4.2034      0.00000
    207       4.2101      0.00000
    208       4.2127      0.00000
    209       4.2447      0.00000
    210       4.2824      0.00000
    211       4.2985      0.00000
    212       4.3113      0.00000
    213       4.3170      0.00000
    214       4.3369      0.00000
    215       4.3430      0.00000
    216       4.3445      0.00000
    217       4.3477      0.00000
    218       4.3550      0.00000
    219       4.3584      0.00000
    220       4.3676      0.00000
    221       4.3769      0.00000
    222       4.4031      0.00000
    223       4.4173      0.00000
    224       4.4401      0.00000
    225       4.4412      0.00000
    226       4.4468      0.00000
    227       4.4495      0.00000
    228       4.4499      0.00000
    229       4.4582      0.00000
    230       4.4590      0.00000
    231       4.4751      0.00000
    232       4.4941      0.00000
    233       4.5006      0.00000
    234       4.5025      0.00000
    235       4.5155      0.00000
    236       4.5207      0.00000
    237       4.5409      0.00000
    238       4.5444      0.00000
    239       4.5477      0.00000
    240       4.5480      0.00000
    241       4.5486      0.00000
    242       4.5681      0.00000
    243       4.5684      0.00000
    244       4.5723      0.00000
    245       4.5843      0.00000
    246       4.6111      0.00000
    247       4.6179      0.00000
    248       4.6209      0.00000
    249       4.6233      0.00000
    250       4.6570      0.00000
    251       4.6631      0.00000
    252       4.6655      0.00000
    253       4.6657      0.00000
    254       4.6661      0.00000
    255       4.7380      0.00000
    256       4.7629      0.00000


--------------------------------------------------------------------------------------------------------


 soft charge-density along one line, spin component           1
         0         1         2         3         4         5         6         7         8         9
 total charge-density along one line

 pseudopotential strength for first ion, spin component:           1
 -7.162  -0.000  -0.000   0.000   0.000  -1.761   0.000   0.000
 -0.000  -7.110   0.000   0.000  -0.000   0.000  -1.799  -0.000
 -0.000   0.000  -7.129   0.000   0.033   0.000  -0.000  -1.785
  0.000   0.000   0.000  -7.162   0.000  -0.000  -0.000  -0.000
  0.000  -0.000   0.033   0.000  -7.167  -0.000   0.000  -0.023
 -1.761   0.000   0.000  -0.000  -0.000   8.359  -0.000  -0.000
  0.000  -1.799  -0.000  -0.000   0.000  -0.000   8.379   0.000
  0.000  -0.000  -1.785  -0.000  -0.023  -0.000   0.000   8.373
 -0.000  -0.000  -0.000  -1.761  -0.000   0.000   0.000   0.000
 -0.000   0.000  -0.023  -0.000  -1.758   0.000  -0.000   0.011
 -0.000  -0.000  -0.007  -0.000   0.012  -0.000  -0.000  -0.000
 -0.000  -0.000  -0.013  -0.000   0.023  -0.000  -0.000  -0.001
  0.030   0.000  -0.000   0.000  -0.000  -0.015   0.000   0.000
  0.000   0.000  -0.000   0.030  -0.000   0.000  -0.000  -0.000
  0.000   0.000  -0.018   0.000   0.032  -0.000   0.000   0.011
  0.033   0.000  -0.000  -0.000  -0.000  -0.012   0.000  -0.000
 -0.000   0.000   0.000   0.033   0.000   0.000   0.000  -0.000
  0.000  -0.000  -0.021   0.000   0.036   0.000   0.000   0.009
 total augmentation occupancy for first ion, spin component:           1
  2.000   0.000   0.000   0.000   0.000   0.002   0.000   0.000   0.000   0.000   0.000   0.000  -0.043   0.000   0.000   0.041
  0.000   2.004   0.000   0.000   0.000   0.000  -0.009  -0.000   0.000   0.000   0.000   0.000   0.000   0.000  -0.000   0.000
  0.000   0.000   2.001   0.000   0.005   0.000   0.000  -0.002   0.000  -0.012   0.052   0.001   0.000   0.000   0.051   0.000
  0.000   0.000   0.000   2.000   0.000   0.000   0.000   0.000   0.002   0.000   0.000   0.000   0.000  -0.043   0.000  -0.000
  0.000   0.000   0.005   0.000   1.995   0.000   0.000  -0.012   0.000   0.012  -0.091  -0.001   0.000   0.000  -0.089  -0.000
  0.002   0.000   0.000   0.000   0.000   0.002   0.000  -0.000   0.000   0.000   0.000   0.000  -0.005   0.000  -0.000   0.000
  0.000  -0.009   0.000   0.000   0.000   0.000   0.000   0.000  -0.000   0.000   0.000   0.000   0.000   0.000   0.000   0.000
  0.000  -0.000  -0.002   0.000  -0.012  -0.000   0.000   0.002   0.000  -0.003  -0.043   0.005   0.000   0.000   0.010   0.000
  0.000   0.000   0.000   0.002   0.000   0.000  -0.000   0.000   0.002   0.000   0.000   0.000   0.000  -0.005   0.000  -0.000
  0.000   0.000  -0.012   0.000   0.012   0.000   0.000  -0.003   0.000   0.005   0.075  -0.009   0.000   0.000  -0.017  -0.000
  0.000   0.000   0.052   0.000  -0.091   0.000   0.000  -0.043   0.000   0.075   1.841  -0.212  -0.000   0.000  -0.280   0.000
  0.000   0.000   0.001   0.000  -0.001   0.000   0.000   0.005   0.000  -0.009  -0.212   0.025   0.000   0.000   0.034  -0.000
 -0.043   0.000   0.000   0.000   0.000  -0.005   0.000   0.000   0.000   0.000  -0.000   0.000   0.009   0.000  -0.000  -0.002
  0.000   0.000   0.000  -0.043   0.000   0.000   0.000   0.000  -0.005   0.000   0.000   0.000   0.000   0.009   0.000   0.000
  0.000  -0.000   0.051   0.000  -0.089  -0.000   0.000   0.010   0.000  -0.017  -0.280   0.034  -0.000   0.000   0.060   0.000
  0.041   0.000   0.000  -0.000   0.000   0.000   0.000   0.000  -0.000   0.000   0.000   0.000  -0.002   0.000   0.000   0.001
 -0.000   0.000   0.000   0.041   0.000   0.000   0.000   0.000   0.000   0.000   0.000   0.000   0.000  -0.002   0.000   0.000
  0.000   0.000  -0.023   0.000   0.041  -0.000   0.000  -0.001   0.000   0.002   0.029  -0.004   0.000   0.000  -0.008   0.000


------------------------ aborting loop because EDIFF is reached ----------------------------------------


    FORLOC:  cpu time      0.0008: real time      0.0008
    FORHF :  cpu time      1.3807: real time      1.3815
    FORNL :  cpu time      0.1338: real time      0.1338
    FORCOR:  cpu time      0.7299: real time      0.7304
    OFIELD:  cpu time      0.0001: real time      0.0001

 VOLUME and BASIS-vectors are now :
 -----------------------------------------------------------------------------
  energy-cutoff  :      520.00
  volume of cell :     9881.61
      direct lattice vectors                 reciprocal lattice vectors
    21.138852197  0.000000000  0.000000000     0.047306258  0.000000000  0.000000000
     0.000000000 21.138852197  0.000000000     0.000000000  0.047306258  0.000000000
     0.000000000  0.000000000 22.113885220     0.000000000  0.000000000  0.045220457

  length of vectors
    21.138852197 21.138852197 22.113885220     0.047306258  0.047306258  0.045220457


 FORCES acting on ions:
    Electron-Ion                     Ewald-Force                    Non-Local-Force
 -----------------------------------------------------------------------------------------------
   -.342E+03 -.694E-06 -.237E-04   0.329E+03 -.464E-17 -.511E-16   0.122E+02 0.529E-22 -.319E-19
   0.342E+03 -.694E-06 -.320E-04   -.329E+03 0.241E-16 -.494E-16   -.122E+02 -.529E-22 -.446E-19
 -----------------------------------------------------------------------------------------------
   0.601E-06 -.140E-05 -.568E-04   0.000E+00 0.195E-16 -.101E-15   0.178E-14 0.000E+00 -.765E-19


 POSITION                                       TOTAL-FORCE (eV/Angst)
 -----------------------------------------------------------------------------------
     13.83084     10.56943     13.38544        -0.321369      0.000000     -0.000000
     11.53578     10.56943     13.38544         0.321369      0.000000      0.000000
 -----------------------------------------------------------------------------------
    total drift:                                0.000001     -0.000001     -0.000057


--------------------------------------------------------------------------------------------------------



  FREE ENERGIE OF THE ION-ELECTRON SYSTEM (eV)
  ---------------------------------------------------
  free  energy   TOTEN  =        -3.12222131 eV

  energy  without entropy=       -3.12222131  energy(sigma->0) =       -3.12222131



--------------------------------------------------------------------------------------------------------


    POTLOK:  cpu time      0.8091: real time      0.8098


--------------------------------------------------------------------------------------------------------


     LOOP+:  cpu time   1361.4442: real time   1362.5387
    4ORBIT:  cpu time      0.0000: real time      0.0000

 total amount of memory used by VASP MPI-rank0  1210273. kBytes
=======================================================================

   base      :      30000. kBytes
   nonlr-proj:       1093. kBytes
   fftplans  :      61791. kBytes
   grid      :      48291. kBytes
   one-center:         15. kBytes
   HF        :         64. kBytes
   wavefun   :       3207. kBytes
   fock_wrk  :    1065812. kBytes

  
  
 General timing and accounting informations for this job:
 ========================================================
  
                  Total CPU time used (sec):     1461.754
                            User time (sec):     1421.315
                          System time (sec):       40.439
                         Elapsed time (sec):     1472.359
  
                   Maximum memory used (kb):     2577272.
                   Average memory used (kb):          N/A
  
                          Minor page faults:      3784476
                          Major page faults:           51
                 Voluntary context switches:        47415
