 vasp.6.4.0 14Feb23 (build Jul 14 2023 13:46:40) complex                        
  
 executed on             LinuxIFC date 2023.07.15  21:01:18
 running   64 mpi-ranks, with    1 threads/rank, on    2 nodes
 distrk:  each k-point on   64 cores,    1 groups
 distr:  one band on NCORE=   1 cores,   64 groups


--------------------------------------------------------------------------------------------------------


 INCAR:
   SYSTEM = MgO-rocksalt
   ISMEAR = 0
   SIGMA = 0.05
   EDIFF = 1E-6
   ALGO = ALL
   ISTART = 0
   IBRION = -1
   NSW = 0
   ISYM = 2
   GGA = RE
   IVDW = 11
   ENCUT = 520
   PREC = Accurate
   LASPH = .TRUE.
   LREAL = Auto
   ISPIN = 1
   NELM = 200
   NELMIN = 8
   NCORE = 1
   KPAR = 1
   LWAVE = .FALSE.
   LCHARG = .FALSE.

 POTCAR:    PAW_PBE Ag 02Apr2005                  
 POTCAR:    PAW_PBE Ag 02Apr2005                  
   SHA256 =  6550cfa3543261e132c169e1b98a529204624d72be14e2da2e0242bcb74a174d Ag/POTCAR             
   COPYR  = (c) Copyright 02Apr2005 Georg Kresse                                                    
   COPYR  = This file is part of the software VASP. Any use, copying, and all other rights are regul
   COPYR  = If you do not have a valid VASP license, you may not use, copy or distribute this file. 
   VRHFIN =Ag : s1 d10                                                                              
   LEXCH  = PE                                                                                      
   EATOM  =  1037.2675 eV,   76.2370 Ry                                                             
                                                                                                    
   TITEL  = PAW_PBE Ag 02Apr2005                                                                    
   LULTRA =        F    use ultrasoft PP ?                                                          
   IUNSCR =        1    unscreen: 0-lin 1-nonlin 2-no                                               
   RPACOR =    2.000    partial core radius                                                         
   POMASS =  107.868; ZVAL   =   11.000    mass and valenz                                          
   RCORE  =    2.500    outmost cutoff radius                                                       
   RWIGS  =    2.840; RWIGS  =    1.503    wigner-seitz radius (au A)                               
   ENMAX  =  249.844; ENMIN  =  187.383 eV                                                          
   ICORE  =        3    local potential                                                             
   LCOR   =        T    correct aug charges                                                         
   LPAW   =        T    paw PP                                                                      
   EAUG   =  412.496                                                                                
   DEXC   =    0.000                                                                                
   RMAX   =    2.560    core radius for proj-oper                                                   
   RAUG   =    1.300    factor for augmentation sphere                                              
   RDEP   =    2.576    radius for radial grids                                                     
   RDEPT  =    2.072    core radius for aug-charge                                                  
                                                                                                    
   Atomic configuration                                                                             
   12 entries                                                                                       
     n  l   j            E        occ.                                                              
     1  0  0.50    -25324.9161   2.0000                                                             
     2  0  0.50     -3728.5341   2.0000                                                             
     2  1  1.50     -3344.0404   6.0000                                                             
     3  0  0.50      -683.5581   2.0000                                                             
     3  1  1.50      -557.3225   6.0000                                                             
     3  2  2.50      -358.3853  10.0000                                                             
     4  0  0.50       -95.0341   2.0000                                                             
     4  1  1.50       -58.5511   6.0000                                                             
     4  2  2.50        -7.4440  10.0000                                                             
     5  0  0.50        -4.4045   1.0000                                                             
     5  1  0.50        -1.3606   0.0000                                                             
     4  3  2.50        -1.3606   0.0000                                                             
   Description                                                                                      
     l       E           TYP  RCUT    TYP  RCUT                                                     
     2     -7.4439781     23  2.400                                                                 
     2     -8.8045607     23  2.400                                                                 
     0     -4.4044681     23  2.400                                                                 
     0      1.9520038     23  2.400                                                                 
     1     -1.3605826     23  2.500                                                                 
     1     27.2116520     23  2.500                                                                 
     3     -4.0817478     23  2.400                                                                 
  local pseudopotential read in
  partial core-charges read in
  partial kinetic energy density read in
  atomic valenz-charges read in
  non local Contribution for L=           2  read in
    real space projection operators read in
  non local Contribution for L=           2  read in
    real space projection operators read in
  non local Contribution for L=           0  read in
    real space projection operators read in
  non local Contribution for L=           0  read in
    real space projection operators read in
  non local Contribution for L=           1  read in
    real space projection operators read in
  non local Contribution for L=           1  read in
    real space projection operators read in
    PAW grid and wavefunctions read in
 
   number of l-projection  operators is LMAX  =           6
   number of lm-projection operators is LMMAX =          18
 
 -----------------------------------------------------------------------------
|                                                                             |
|               ----> ADVICE to this user running VASP <----                  |
|                                                                             |
|     You have a (more or less) 'small supercell' and for smaller cells       |
|     it is recommended to use the reciprocal-space projection scheme!        |
|     The real-space optimization is not efficient for small cells and it     |
|     is also less accurate ...                                               |
|     Therefore, set LREAL=.FALSE. in the INCAR file.                         |
|                                                                             |
 -----------------------------------------------------------------------------

 Optimization of the real space projectors (new method)

 maximal supplied QI-value         = 15.12
 optimisation between [QCUT,QGAM] = [ 11.64, 23.28] = [ 37.95,151.78] Ry 
 Optimized for a Real-space Cutoff    1.45 Angstroem

   l    n(q)    QCUT    max X(q) W(low)/X(q) W(high)/X(q)  e(spline) 
   2      9    11.641    53.897    0.22E-03    0.42E-04    0.28E-06
   2      9    11.641    52.416    0.23E-03    0.44E-04    0.29E-06
   0     10    11.641   122.045    0.51E-04    0.25E-04    0.16E-06
   0     10    11.641    73.629    0.49E-04    0.24E-04    0.16E-06
   1     10    11.641    15.255    0.99E-04    0.55E-04    0.11E-06
   1     10    11.641     9.562    0.81E-04    0.47E-04    0.95E-07
 -----------------------------------------------------------------------------
|                                                                             |
|               ----> ADVICE to this user running VASP <----                  |
|                                                                             |
|     You enforced a specific xc type in the INCAR file but a different       |
|     type was found in the POTCAR file.                                      |
|     I HOPE YOU KNOW WHAT YOU ARE DOING!                                     |
|                                                                             |
 -----------------------------------------------------------------------------

  PAW_PBE Ag 02Apr2005                  :
 energy of atom  1       EATOM=-1037.2675
 kinetic energy error for atom=    0.0047 (will be added to EATOM!!)
 
 
 POSCAR: Ag
  positions in direct lattice
  velocities in cartesian coordinates
 exchange correlation table for  LEXCH =       40
   RHO(1)=    0.500       N(1)  =     2000
   RHO(2)=  100.500       N(2)  =     4000
 


--------------------------------------------------------------------------------------------------------


 ion  position               nearest neighbor table
   1  0.459  0.344  0.543-   3 2.60   4 2.70
   2  0.532  0.526  0.446-   5 2.60   4 2.63   3 2.74   6 3.04
   3  0.468  0.474  0.555-   1 2.60   6 2.63   2 2.74   4 3.05
   4  0.523  0.396  0.436-   2 2.63   1 2.70   3 3.05
   5  0.541  0.656  0.456-   2 2.60   6 2.71
   6  0.477  0.604  0.564-   3 2.63   5 2.71   2 3.04
 
  LATTYP: Found a simple cubic cell.
 ALAT       =    20.0000000000
  
  Lattice vectors:
  
 A1 = (  20.0000000000,   0.0000000000,   0.0000000000)
 A2 = (   0.0000000000,  20.0000000000,   0.0000000000)
 A3 = (   0.0000000000,   0.0000000000,  20.0000000000)


Analysis of symmetry for initial positions (statically):
=====================================================================
 Subroutine PRICEL returns:
 Original cell was already a primitive cell.
 

 Routine SETGRP: Setting up the symmetry group for a 
 simple cubic supercell.


 Subroutine GETGRP returns: Found  1 space group operations
 (whereof  1 operations were pure point group operations)
 out of a pool of 48 trial point group operations.


The static configuration has the point symmetry C_1 .


Analysis of symmetry for dynamics (positions and initial velocities):
=====================================================================
 Subroutine PRICEL returns:
 Original cell was already a primitive cell.
 

 Routine SETGRP: Setting up the symmetry group for a 
 simple cubic supercell.


 Subroutine GETGRP returns: Found  1 space group operations
 (whereof  1 operations were pure point group operations)
 out of a pool of 48 trial point group operations.


The dynamic configuration has the point symmetry C_1 .


 Subroutine INISYM returns: Found  1 space group operations
 (whereof  1 operations are pure point group operations),
 and found     1 'primitive' translations


----------------------------------------------------------------------------------------

                                     Primitive cell                                     

  volume of cell :    8000.0000

  direct lattice vectors                    reciprocal lattice vectors
    20.000000000  0.000000000  0.000000000     0.050000000  0.000000000  0.000000000
     0.000000000 20.000000000  0.000000000     0.000000000  0.050000000  0.000000000
     0.000000000  0.000000000 20.000000000     0.000000000  0.000000000  0.050000000

  length of vectors
    20.000000000 20.000000000 20.000000000     0.050000000  0.050000000  0.050000000

  position of ions in fractional coordinates (direct lattice)
     0.459156505  0.344440884  0.543437521
     0.531713138  0.526369565  0.445627435
     0.468108492  0.473648908  0.554679367
     0.522675558  0.395690157  0.435604448
     0.540924936  0.655612949  0.456386841
     0.477353056  0.604318885  0.564274097

  ion indices of the primitive-cell ions
   primitive index   ion index
                 1           1
                 2           2
                 3           3
                 4           4
                 5           5
                 6           6

----------------------------------------------------------------------------------------

 
 
 KPOINTS: KPOINTS created by Atomic Simulation Env

Automatic generation of k-mesh.
 Grid dimensions read from file:
 generate k-points for:    1    1    1

 Generating k-lattice:

  Cartesian coordinates                     Fractional coordinates (reciprocal lattice)
     0.050000000  0.000000000  0.000000000     1.000000000  0.000000000  0.000000000
     0.000000000  0.050000000  0.000000000     0.000000000  1.000000000  0.000000000
     0.000000000  0.000000000  0.050000000     0.000000000  0.000000000  1.000000000

  Length of vectors
     0.050000000  0.050000000  0.050000000

  Shift w.r.t. Gamma in fractional coordinates (k-lattice)
     0.000000000  0.000000000  0.000000000

 
 Subroutine IBZKPT returns following result:
 ===========================================
 
 Found      1 irreducible k-points:
 
 Following reciprocal coordinates:
            Coordinates               Weight
  0.000000  0.000000  0.000000      1.000000
 
 Following cartesian coordinates:
            Coordinates               Weight
  0.000000  0.000000  0.000000      1.000000
 


--------------------------------------------------------------------------------------------------------




 Dimension of arrays:
   k-points           NKPTS =      1   k-points in BZ     NKDIM =      1   number of bands    NBANDS=     64
   number of dos      NEDOS =    301   number of ions     NIONS =      6
   non local maximal  LDIM  =      6   non local SUM 2l+1 LMDIM =     18
   total plane-waves  NPLWV = ******
   max r-space proj   IRMAX =   5390   max aug-charges    IRDMAX=  20940
   dimension x,y,z NGX =   150 NGY =  150 NGZ =  150
   dimension x,y,z NGXF=   300 NGYF=  300 NGZF=  300
   support grid    NGXF=   300 NGYF=  300 NGZF=  300
   ions per type =               6
   NGX,Y,Z   is equivalent  to a cutoff of  12.47, 12.47, 12.47 a.u.
   NGXF,Y,Z  is equivalent  to a cutoff of  24.94, 24.94, 24.94 a.u.

 SYSTEM =  MgO-rocksalt                            
 POSCAR =  Ag                                      

 Startparameter for this run:
   NWRITE =      2    write-flag & timer
   PREC   = accura    normal or accurate (medium, high low for compatibility)
   ISTART =      0    job   : 0-new  1-cont  2-samecut
   ICHARG =      2    charge: 1-file 2-atom 10-const
   ISPIN  =      1    spin polarized calculation?
   LNONCOLLINEAR =      F non collinear calculations
   LSORBIT =      F    spin-orbit coupling
   INIWAV =      1    electr: 0-lowe 1-rand  2-diag
   LASPH  =      T    aspherical Exc in radial PAW
 Electronic Relaxation 1
   ENCUT  =  520.0 eV  38.22 Ry    6.18 a.u.  37.19 37.19 37.19*2*pi/ulx,y,z
   ENINI  =  520.0     initial cutoff
   ENAUG  =  412.5 eV  augmentation charge cutoff
   NELM   =    200;   NELMIN=  8; NELMDL= -5     # of ELM steps 
   EDIFF  = 0.1E-05   stopping-criterion for ELM
   LREAL  =      T    real-space projection
   NLSPLINE    = F    spline interpolate recip. space projectors
   LCOMPAT=      F    compatible to vasp.4.4
   GGA_COMPAT  = T    GGA compatible to vasp.4.4-vasp.4.6
   LMAXPAW     = -100 max onsite density
   LMAXMIX     =    2 max onsite mixed and CHGCAR
   VOSKOWN=      0    Vosko Wilk Nusair interpolation
   ROPT   =   -0.00025
 Ionic relaxation
   EDIFFG = 0.1E-04   stopping-criterion for IOM
   NSW    =      0    number of steps for IOM
   NBLOCK =      1;   KBLOCK =      1    inner block; outer block 
   IBRION =     -1    ionic relax: 0-MD 1-quasi-New 2-CG
   NFREE  =      0    steps in history (QN), initial steepest desc. (CG)
   ISIF   =      2    stress and relaxation
   IWAVPR =     10    prediction:  0-non 1-charg 2-wave 3-comb
   ISYM   =      2    0-nonsym 1-usesym 2-fastsym
   LCORR  =      T    Harris-Foulkes like correction to forces

   POTIM  = 0.5000    time-step for ionic-motion
   TEIN   =    0.0    initial temperature
   TEBEG  =    0.0;   TEEND  =   0.0 temperature during run
   SMASS  =  -3.00    Nose mass-parameter (am)
   estimated Nose-frequenzy (Omega)   =  0.10E-29 period in steps = 0.13E+47 mass=  -0.914E-26a.u.
   SCALEE = 1.0000    scale energy and forces
   NPACO  =    256;   APACO  = 10.0  distance and # of slots for P.C.
   PSTRESS=    0.0 pullay stress

  Mass of Ions in am
   POMASS = 107.87
  Ionic Valenz
   ZVAL   =  11.00
  Atomic Wigner-Seitz radii
   RWIGS  =  -1.00
  virtual crystal weights 
   VCA    =   1.00
   NELECT =      66.0000    total number of electrons
   NUPDOWN=      -1.0000    fix difference up-down

 DOS related values:
   EMIN   =  10.00;   EMAX   =-10.00  energy-range for DOS
   EFERMI =   0.00;   METHOD = LEGACY      
   ISMEAR =     0;   SIGMA  =   0.05  broadening in eV -4-tet -1-fermi 0-gaus

 Electronic relaxation 2 (details)
   IALGO  =     58    algorithm
   LDIAG  =      T    sub-space diagonalisation (order eigenvalues)
   LSUBROT=      F    optimize rotation matrix (better conditioning)
   TURBO    =      0    0=normal 1=particle mesh
   IRESTART =      0    0=no restart 2=restart with 2 vectors
   NREBOOT  =      0    no. of reboots
   NMIN     =      0    reboot dimension
   EREF     =   0.00    reference energy to select bands
   IMIX   =      4    mixing-type and parameters
     AMIX     =   0.40;   BMIX     =  1.00
     AMIX_MAG =   1.60;   BMIX_MAG =  1.00
     AMIN     =   0.10
     WC   =   100.;   INIMIX=   1;  MIXPRE=   1;  MAXMIX= -45

 Intra band minimization:
   WEIMIN = 0.0000     energy-eigenvalue tresh-hold
   EBREAK =  0.39E-08  absolut break condition
   DEPER  =   0.30     relativ break condition  

   TIME   =   0.40     timestep for ELM

  volume/ion in A,a.u.               =    1333.33      8997.78
  Fermi-wavevector in a.u.,A,eV,Ry     =   0.330795  0.625113  1.488826  0.109426
  Thomas-Fermi vector in A             =   1.226404
 
 Write flags
   LWAVE        =      F    write WAVECAR
   LDOWNSAMPLE  =      F    k-point downsampling of WAVECAR
   LCHARG       =      F    write CHGCAR
   LVTOT        =      F    write LOCPOT, total local potential
   LVHAR        =      F    write LOCPOT, Hartree potential only
   LELF         =      F    write electronic localiz. function (ELF)
   LORBIT       =      0    0 simple, 1 ext, 2 COOP (PROOUT), +10 PAW based schemes


 Dipole corrections
   LMONO  =      F    monopole corrections only (constant potential shift)
   LDIPOL =      F    correct potential (dipole corrections)
   IDIPOL =      0    1-x, 2-y, 3-z, 4-all directions 
   EPSILON=  1.0000000 bulk dielectric constant

 Exchange correlation treatment:
   GGA     =    RE    GGA type
   LEXCH   =    40    internal setting for exchange type
   LIBXC   =     F    Libxc                    
   VOSKOWN =     0    Vosko Wilk Nusair interpolation
   LHFCALC =     F    Hartree Fock is set to
   LHFONE  =     F    Hartree Fock one center treatment
   AEXX    =    0.0000 exact exchange contribution

 Linear response parameters
   LEPSILON=     F    determine dielectric tensor
   LRPA    =     F    only Hartree local field effects (RPA)
   LNABLA  =     F    use nabla operator in PAW spheres
   LVEL    =     F    velocity operator in full k-point grid
   CSHIFT  =0.1000    complex shift for real part using Kramers Kronig
   OMEGAMAX=  -1.0    maximum frequency
   DEG_THRESHOLD= 0.2000000E-02 threshold for treating states as degnerate
   RTIME   =   -0.100 relaxation time in fs
  (WPLASMAI=    0.000 imaginary part of plasma frequency in eV, 0.658/RTIME)
   DFIELD  = 0.0000000 0.0000000 0.0000000 field for delta impulse in time
 
  Optional k-point grid parameters
   LKPOINTS_OPT  =     F    use optional k-point grid
   KPOINTS_OPT_MODE=     1    mode for optional k-point grid
 
 Orbital magnetization related:
   ORBITALMAG=     F  switch on orbital magnetization
   LCHIMAG   =     F  perturbation theory with respect to B field
   DQ        =  0.001000  dq finite difference perturbation B field
   LLRAUG    =     F  two centre corrections for induced B field
   LBONE     =     F  B-component reconstruction in AE one-centre
   LVGVCALC  =     T  calculate vGv susceptibility
   LVGVAPPL  =     F  apply vGv susceptibility instead of pGv for G=0

 Random number generation:
   RANDOM_GENERATOR = DEFAULT
   PCG_SEED         = not used


--------------------------------------------------------------------------------------------------------


 Static calculation
 charge density and potential will be updated during run
 non-spin polarized calculation
 Conjugate gradient for all bands (Freysoldt, et al. PRB 79, 241103 (2009))
 preconditioned conjugated gradient                                        
 perform sub-space diagonalisation
    before iterative eigenvector-optimisation
 modified Broyden-mixing scheme, WC =      100.0
 initial mixing is a Kerker type mixing with AMIX =  0.4000 and BMIX =      1.0000
 Hartree-type preconditioning will be used
 using additional bands           31
 real space projection scheme for non local part
 use partial core corrections
 no Harris-corrections to forces 
 use gradient corrections 
 use of overlap-Matrix (Vanderbilt PP)
 Gauss-broadening in eV      SIGMA  =   0.05


--------------------------------------------------------------------------------------------------------


  energy-cutoff  :      520.00
  volume of cell :     8000.00
      direct lattice vectors                 reciprocal lattice vectors
    20.000000000  0.000000000  0.000000000     0.050000000  0.000000000  0.000000000
     0.000000000 20.000000000  0.000000000     0.000000000  0.050000000  0.000000000
     0.000000000  0.000000000 20.000000000     0.000000000  0.000000000  0.050000000

  length of vectors
    20.000000000 20.000000000 20.000000000     0.050000000  0.050000000  0.050000000


 
 k-points in units of 2pi/SCALE and weight: KPOINTS created by Atomic Simulation Env
   0.00000000  0.00000000  0.00000000       1.000
 
 k-points in reciprocal lattice and weights: KPOINTS created by Atomic Simulation Env
   0.00000000  0.00000000  0.00000000       1.000
 
 position of ions in fractional coordinates (direct lattice) 
   0.45915651  0.34444088  0.54343752
   0.53171314  0.52636957  0.44562743
   0.46810849  0.47364891  0.55467937
   0.52267556  0.39569016  0.43560445
   0.54092494  0.65561295  0.45638684
   0.47735306  0.60431888  0.56427410
 
 position of ions in cartesian coordinates  (Angst):
   9.18313010  6.88881767 10.86875042
  10.63426275 10.52739130  8.91254869
   9.36216984  9.47297816 11.09358734
  10.45351117  7.91380313  8.71208896
  10.81849872 13.11225899  9.12773682
   9.54706112 12.08637770 11.28548195
 


--------------------------------------------------------------------------------------------------------


 k-point   1 :   0.0000 0.0000 0.0000  plane waves:  215503

 maximum and minimum number of plane-waves per node :    215503   215503

 maximum number of plane-waves:    215503
 maximum index in each direction: 
   IXMAX=   37   IYMAX=   37   IZMAX=   37
   IXMIN=  -37   IYMIN=  -37   IZMIN=  -37


 serial   3D FFT for wavefunctions
 parallel 3D FFT for charge:
    minimum data exchange during FFTs selected (reduces bandwidth)


 total amount of memory used by VASP MPI-rank0   231690. kBytes
=======================================================================

   base      :      30000. kBytes
   nonlr-proj:       5470. kBytes
   fftplans  :      28721. kBytes
   grid      :     157056. kBytes
   one-center:         93. kBytes
   wavefun   :      10350. kBytes
 
     INWAV:  cpu time      0.0004: real time      0.0005
 Broyden mixing: mesh for mixing (old mesh)
   NGX = 75   NGY = 75   NGZ = 75
  (NGX  =300   NGY  =300   NGZ  =300)
  gives a total of 421875 points

 initial charge density was supplied:
 charge density of overlapping atoms calculated
 number of electron      66.0000000 magnetization 
 keeping initial charge density in first step


--------------------------------------------------------------------------------------------------------


 Maximum index for non-local projection operator         5187
 Maximum index for augmentation-charges          596 (set IRDMAX)


--------------------------------------------------------------------------------------------------------


 First call to EWALD:  gamma=   0.089
 Maximum number of real-space cells 3x 3x 3
 Maximum number of reciprocal cells 3x 3x 3

    FEWALD:  cpu time      0.0066: real time      0.0069


--------------------------------------- Ionic step        1  -------------------------------------------




--------------------------------------- Iteration      1(   1)  ---------------------------------------


    POTLOK:  cpu time      1.0056: real time      1.0147
    SETDIJ:  cpu time      0.7519: real time      0.7527
    TRIAL :  cpu time      1.5028: real time      1.5729
    CORREC:  cpu time      0.0013: real time      0.0013
    --------------------------------------------
      LOOP:  cpu time      3.2709: real time      3.3521

 eigenvalue-minimisations  :   128
 total energy-change (2. order) : 0.5196544E+03  (-0.1265676E+04)
 number of electron      66.0000000 magnetization 
 augmentation part       66.0000000 magnetization 

 Free energy of the ion-electron system (eV)
  ---------------------------------------------------
  alpha Z        PSCENC =         3.82760131
  Ewald energy   TEWEN  =      3468.15398447
  -Hartree energ DENC   =     -9412.04390781
  -exchange      EXHF   =         0.00000000
  -V(xc)+E(xc)   XCENC  =       -72.64944185
  PAW double counting   =      6024.74297495    -5742.45429288
  entropy T*S    EENTRO =        -0.02512634
  eigenvalues    EBANDS =        29.95378588
  atomic energy  EATOM  =      6220.14885235
  ---------------------------------------------------
  free energy    TOTEN  =       519.65443010 eV

  energy without entropy =      519.67955644  energy(sigma->0) =      519.66699327


--------------------------------------------------------------------------------------------------------




--------------------------------------- Iteration      1(   2)  ---------------------------------------


    TRIAL :  cpu time      2.6152: real time      2.6169
    CORREC:  cpu time      0.0008: real time      0.0008
    --------------------------------------------
      LOOP:  cpu time      2.6184: real time      2.6340

 eigenvalue-minimisations  :   256
 total energy-change (2. order) :-0.4538090E+03  (-0.4537913E+03)
 number of electron      66.0000000 magnetization 
 augmentation part       66.0000000 magnetization 

 Free energy of the ion-electron system (eV)
  ---------------------------------------------------
  alpha Z        PSCENC =         3.82760131
  Ewald energy   TEWEN  =      3468.15398447
  -Hartree energ DENC   =     -9412.04390781
  -exchange      EXHF   =         0.00000000
  -V(xc)+E(xc)   XCENC  =       -72.64944185
  PAW double counting   =      6024.74297495    -5742.45429288
  entropy T*S    EENTRO =        -0.00073215
  eigenvalues    EBANDS =      -423.87964316
  atomic energy  EATOM  =      6220.14885235
  ---------------------------------------------------
  free energy    TOTEN  =        65.84539525 eV

  energy without entropy =       65.84612740  energy(sigma->0) =       65.84576133


--------------------------------------------------------------------------------------------------------




--------------------------------------- Iteration      1(   3)  ---------------------------------------


    TRIAL :  cpu time      1.3341: real time      1.3354
    CORREC:  cpu time      0.0004: real time      0.0004
    --------------------------------------------
      LOOP:  cpu time      1.3358: real time      1.3532

 eigenvalue-minimisations  :   128
 total energy-change (2. order) :-0.7312044E+02  (-0.7311940E+02)
 number of electron      66.0000000 magnetization 
 augmentation part       66.0000000 magnetization 

 Free energy of the ion-electron system (eV)
  ---------------------------------------------------
  alpha Z        PSCENC =         3.82760131
  Ewald energy   TEWEN  =      3468.15398447
  -Hartree energ DENC   =     -9412.04390781
  -exchange      EXHF   =         0.00000000
  -V(xc)+E(xc)   XCENC  =       -72.64944185
  PAW double counting   =      6024.74297495    -5742.45429288
  entropy T*S    EENTRO =        -0.00000000
  eigenvalues    EBANDS =      -497.00081343
  atomic energy  EATOM  =      6220.14885235
  ---------------------------------------------------
  free energy    TOTEN  =        -7.27504287 eV

  energy without entropy =       -7.27504287  energy(sigma->0) =       -7.27504287


--------------------------------------------------------------------------------------------------------




--------------------------------------- Iteration      1(   4)  ---------------------------------------


    TRIAL :  cpu time      1.3446: real time      1.3445
    CORREC:  cpu time      0.0005: real time      0.0005
    --------------------------------------------
      LOOP:  cpu time      1.3607: real time      1.3609

 eigenvalue-minimisations  :   128
 total energy-change (2. order) :-0.8646506E+00  (-0.8646506E+00)
 number of electron      66.0000000 magnetization 
 augmentation part       66.0000000 magnetization 

 Free energy of the ion-electron system (eV)
  ---------------------------------------------------
  alpha Z        PSCENC =         3.82760131
  Ewald energy   TEWEN  =      3468.15398447
  -Hartree energ DENC   =     -9412.04390781
  -exchange      EXHF   =         0.00000000
  -V(xc)+E(xc)   XCENC  =       -72.64944185
  PAW double counting   =      6024.74297495    -5742.45429288
  entropy T*S    EENTRO =        -0.00000000
  eigenvalues    EBANDS =      -497.86546399
  atomic energy  EATOM  =      6220.14885235
  ---------------------------------------------------
  free energy    TOTEN  =        -8.13969344 eV

  energy without entropy =       -8.13969344  energy(sigma->0) =       -8.13969344


--------------------------------------------------------------------------------------------------------




--------------------------------------- Iteration      1(   5)  ---------------------------------------


    TRIAL :  cpu time      2.5396: real time      2.5400
    CORREC:  cpu time      0.0004: real time      0.0004
    CHARGE:  cpu time      0.4499: real time      0.4505
    --------------------------------------------
      LOOP:  cpu time      2.9915: real time      3.0070

 eigenvalue-minimisations  :   256
 total energy-change (2. order) :-0.9970498E-02  (-0.9970498E-02)
 number of electron      66.0000008 magnetization 
 augmentation part       31.5765535 magnetization 

 Free energy of the ion-electron system (eV)
  ---------------------------------------------------
  alpha Z        PSCENC =         3.82760131
  Ewald energy   TEWEN  =      3468.15398447
  -Hartree energ DENC   =     -9412.04390781
  -exchange      EXHF   =         0.00000000
  -V(xc)+E(xc)   XCENC  =       -72.64944185
  PAW double counting   =      6024.74297495    -5742.45429288
  entropy T*S    EENTRO =        -0.00000000
  eigenvalues    EBANDS =      -497.87543449
  atomic energy  EATOM  =      6220.14885235
  ---------------------------------------------------
  free energy    TOTEN  =        -8.14966393 eV

  energy without entropy =       -8.14966393  energy(sigma->0) =       -8.14966393


--------------------------------------------------------------------------------------------------------




--------------------------------------- Iteration      1(   6)  ---------------------------------------


    POTLOK:  cpu time      0.9294: real time      0.9394
    SETDIJ:  cpu time      0.7351: real time      0.7357
    TRIAL :  cpu time      0.9091: real time      0.9716
    CORREC:  cpu time      2.3302: real time      2.3292
    CHARGE:  cpu time      0.3903: real time      0.3908
    --------------------------------------------
      LOOP:  cpu time      5.2967: real time      5.3837

 eigenvalue-minimisations  :     0
 total energy-change (2. order) : 0.1770610E+01  (-0.9407816E+00)
 number of electron      66.0000008 magnetization 
 augmentation part       31.8784480 magnetization 

 Free energy of the ion-electron system (eV)
  ---------------------------------------------------
  alpha Z        PSCENC =         3.82760131
  Ewald energy   TEWEN  =      3468.15398447
  -Hartree energ DENC   =     -9447.18588319
  -exchange      EXHF   =         0.00000000
  -V(xc)+E(xc)   XCENC  =       -73.60780875
  PAW double counting   =      6457.85242225    -6183.26902804
  entropy T*S    EENTRO =        -0.00000000
  eigenvalues    EBANDS =      -452.29919448
  atomic energy  EATOM  =      6220.14885235
  ---------------------------------------------------
  free energy    TOTEN  =        -6.37905407 eV

  energy without entropy =       -6.37905407  energy(sigma->0) =       -6.37905407


--------------------------------------------------------------------------------------------------------




--------------------------------------- Iteration      1(   7)  ---------------------------------------


    POTLOK:  cpu time      0.9797: real time      0.9795
    SETDIJ:  cpu time      0.7345: real time      0.7352
    TRIAL :  cpu time      0.7609: real time      0.7614
    CORREC:  cpu time      2.3253: real time      2.3261
    CHARGE:  cpu time      0.3830: real time      0.3836
    --------------------------------------------
      LOOP:  cpu time      5.2019: real time      5.2045

 eigenvalue-minimisations  :     0
 total energy-change (2. order) :-0.9406452E+00  (-0.1250919E+00)
 number of electron      66.0000008 magnetization 
 augmentation part       31.8612537 magnetization 

 Free energy of the ion-electron system (eV)
  ---------------------------------------------------
  alpha Z        PSCENC =         3.82760131
  Ewald energy   TEWEN  =      3468.15398447
  -Hartree energ DENC   =     -9435.74540392
  -exchange      EXHF   =         0.00000000
  -V(xc)+E(xc)   XCENC  =       -72.98028194
  PAW double counting   =      6455.79059393    -6181.45782762
  entropy T*S    EENTRO =        -0.00000062
  eigenvalues    EBANDS =      -465.05721788
  atomic energy  EATOM  =      6220.14885235
  ---------------------------------------------------
  free energy    TOTEN  =        -7.31969931 eV

  energy without entropy =       -7.31969869  energy(sigma->0) =       -7.31969900


--------------------------------------------------------------------------------------------------------




--------------------------------------- Iteration      1(   8)  ---------------------------------------


    POTLOK:  cpu time      0.9805: real time      0.9810
    SETDIJ:  cpu time      0.7340: real time      0.7347
    TRIAL :  cpu time      0.7825: real time      0.7821
    CORREC:  cpu time      2.3143: real time      2.3146
    CHARGE:  cpu time      0.3818: real time      0.3816
    --------------------------------------------
      LOOP:  cpu time      5.1954: real time      5.2104

 eigenvalue-minimisations  :     0
 total energy-change (2. order) :-0.1247732E+00  (-0.4933414E-01)
 number of electron      66.0000008 magnetization 
 augmentation part       31.8545346 magnetization 

 Free energy of the ion-electron system (eV)
  ---------------------------------------------------
  alpha Z        PSCENC =         3.82760131
  Ewald energy   TEWEN  =      3468.15398447
  -Hartree energ DENC   =     -9420.96094856
  -exchange      EXHF   =         0.00000000
  -V(xc)+E(xc)   XCENC  =       -73.20964596
  PAW double counting   =      6438.57571402    -6164.14458756
  entropy T*S    EENTRO =        -0.00007779
  eigenvalues    EBANDS =      -479.83544194
  atomic energy  EATOM  =      6220.14885235
  ---------------------------------------------------
  free energy    TOTEN  =        -7.44447248 eV

  energy without entropy =       -7.44439469  energy(sigma->0) =       -7.44443359


--------------------------------------------------------------------------------------------------------




--------------------------------------- Iteration      1(   9)  ---------------------------------------


    POTLOK:  cpu time      0.9649: real time      0.9656
    SETDIJ:  cpu time      0.7400: real time      0.7407
    TRIAL :  cpu time      0.7686: real time      0.7689
    CORREC:  cpu time      2.2979: real time      2.2996
    CHARGE:  cpu time      0.3821: real time      0.3819
    --------------------------------------------
      LOOP:  cpu time      5.1558: real time      5.1734

 eigenvalue-minimisations  :     0
 total energy-change (2. order) :-0.4901906E-01  (-0.9025042E-02)
 number of electron      66.0000008 magnetization 
 augmentation part       31.8743673 magnetization 

 Free energy of the ion-electron system (eV)
  ---------------------------------------------------
  alpha Z        PSCENC =         3.82760131
  Ewald energy   TEWEN  =      3468.15398447
  -Hartree energ DENC   =     -9417.79222030
  -exchange      EXHF   =         0.00000000
  -V(xc)+E(xc)   XCENC  =       -73.24372568
  PAW double counting   =      6433.57506343    -6159.08447010
  entropy T*S    EENTRO =        -0.00013066
  eigenvalues    EBANDS =      -483.07849923
  atomic energy  EATOM  =      6220.14885235
  ---------------------------------------------------
  free energy    TOTEN  =        -7.49349154 eV

  energy without entropy =       -7.49336088  energy(sigma->0) =       -7.49342621


--------------------------------------------------------------------------------------------------------




--------------------------------------- Iteration      1(  10)  ---------------------------------------


    POTLOK:  cpu time      0.9354: real time      0.9357
    SETDIJ:  cpu time      0.7331: real time      0.7337
    TRIAL :  cpu time      0.7740: real time      0.7745
    CORREC:  cpu time      2.2686: real time      2.2691
    CHARGE:  cpu time      0.3863: real time      0.3870
    --------------------------------------------
      LOOP:  cpu time      5.0998: real time      5.1163

 eigenvalue-minimisations  :     0
 total energy-change (2. order) :-0.9017175E-02  (-0.1780693E-02)
 number of electron      66.0000008 magnetization 
 augmentation part       31.8617502 magnetization 

 Free energy of the ion-electron system (eV)
  ---------------------------------------------------
  alpha Z        PSCENC =         3.82760131
  Ewald energy   TEWEN  =      3468.15398447
  -Hartree energ DENC   =     -9421.16773910
  -exchange      EXHF   =         0.00000000
  -V(xc)+E(xc)   XCENC  =       -73.16235516
  PAW double counting   =      6435.50035203    -6160.96419594
  entropy T*S    EENTRO =        -0.00014448
  eigenvalues    EBANDS =      -479.83887803
  atomic energy  EATOM  =      6220.14885235
  ---------------------------------------------------
  free energy    TOTEN  =        -7.50250872 eV

  energy without entropy =       -7.50236424  energy(sigma->0) =       -7.50243648


--------------------------------------------------------------------------------------------------------




--------------------------------------- Iteration      1(  11)  ---------------------------------------


    POTLOK:  cpu time      0.9097: real time      0.9101
    SETDIJ:  cpu time      0.7338: real time      0.7344
    TRIAL :  cpu time      0.7620: real time      0.7625
    CORREC:  cpu time      2.2540: real time      2.2549
    CHARGE:  cpu time      0.3821: real time      0.3819
    --------------------------------------------
      LOOP:  cpu time      5.0501: real time      5.0668

 eigenvalue-minimisations  :     0
 total energy-change (2. order) :-0.1788830E-02  (-0.6757977E-03)
 number of electron      66.0000008 magnetization 
 augmentation part       31.8684815 magnetization 

 Free energy of the ion-electron system (eV)
  ---------------------------------------------------
  alpha Z        PSCENC =         3.82760131
  Ewald energy   TEWEN  =      3468.15398447
  -Hartree energ DENC   =     -9418.17553283
  -exchange      EXHF   =         0.00000000
  -V(xc)+E(xc)   XCENC  =       -73.22290668
  PAW double counting   =      6431.93011254    -6157.31182733
  entropy T*S    EENTRO =        -0.00014469
  eigenvalues    EBANDS =      -482.85443691
  atomic energy  EATOM  =      6220.14885235
  ---------------------------------------------------
  free energy    TOTEN  =        -7.50429755 eV

  energy without entropy =       -7.50415286  energy(sigma->0) =       -7.50422520


--------------------------------------------------------------------------------------------------------




--------------------------------------- Iteration      1(  12)  ---------------------------------------


    POTLOK:  cpu time      0.9059: real time      0.9064
    SETDIJ:  cpu time      0.7336: real time      0.7335
    TRIAL :  cpu time      0.7766: real time      0.7769
    CORREC:  cpu time      2.2416: real time      2.2432
    CHARGE:  cpu time      0.3807: real time      0.3803
    --------------------------------------------
      LOOP:  cpu time      5.0553: real time      5.0581

 eigenvalue-minimisations  :     0
 total energy-change (2. order) :-0.6706208E-03  (-0.1492173E-03)
 number of electron      66.0000008 magnetization 
 augmentation part       31.8679471 magnetization 

 Free energy of the ion-electron system (eV)
  ---------------------------------------------------
  alpha Z        PSCENC =         3.82760131
  Ewald energy   TEWEN  =      3468.15398447
  -Hartree energ DENC   =     -9419.38593077
  -exchange      EXHF   =         0.00000000
  -V(xc)+E(xc)   XCENC  =       -73.19498505
  PAW double counting   =      6431.12840711    -6156.49754212
  entropy T*S    EENTRO =        -0.00013753
  eigenvalues    EBANDS =      -481.68521079
  atomic energy  EATOM  =      6220.14885235
  ---------------------------------------------------
  free energy    TOTEN  =        -7.50496817 eV

  energy without entropy =       -7.50483064  energy(sigma->0) =       -7.50489941


--------------------------------------------------------------------------------------------------------




--------------------------------------- Iteration      1(  13)  ---------------------------------------


    POTLOK:  cpu time      0.8945: real time      0.8950
    SETDIJ:  cpu time      0.7417: real time      0.7424
    TRIAL :  cpu time      0.7903: real time      0.7906
    CORREC:  cpu time      2.2335: real time      2.2343
    CHARGE:  cpu time      0.3830: real time      0.3835
    --------------------------------------------
      LOOP:  cpu time      5.0469: real time      5.0658

 eigenvalue-minimisations  :     0
 total energy-change (2. order) :-0.1503268E-03  (-0.3185256E-04)
 number of electron      66.0000008 magnetization 
 augmentation part       31.8678054 magnetization 

 Free energy of the ion-electron system (eV)
  ---------------------------------------------------
  alpha Z        PSCENC =         3.82760131
  Ewald energy   TEWEN  =      3468.15398447
  -Hartree energ DENC   =     -9419.34127924
  -exchange      EXHF   =         0.00000000
  -V(xc)+E(xc)   XCENC  =       -73.19693419
  PAW double counting   =      6430.24106117    -6155.59986140
  entropy T*S    EENTRO =        -0.00013585
  eigenvalues    EBANDS =      -481.73840545
  atomic energy  EATOM  =      6220.14885235
  ---------------------------------------------------
  free energy    TOTEN  =        -7.50511850 eV

  energy without entropy =       -7.50498265  energy(sigma->0) =       -7.50505057


--------------------------------------------------------------------------------------------------------




--------------------------------------- Iteration      1(  14)  ---------------------------------------


    POTLOK:  cpu time      0.8903: real time      0.8906
    SETDIJ:  cpu time      0.7335: real time      0.7341
    TRIAL :  cpu time      0.7600: real time      0.7595
    CORREC:  cpu time      2.2333: real time      2.2350
    CHARGE:  cpu time      0.3825: real time      0.3821
    --------------------------------------------
      LOOP:  cpu time      5.0017: real time      5.0182

 eigenvalue-minimisations  :     0
 total energy-change (2. order) :-0.3169314E-04  (-0.1563895E-04)
 number of electron      66.0000008 magnetization 
 augmentation part       31.8683222 magnetization 

 Free energy of the ion-electron system (eV)
  ---------------------------------------------------
  alpha Z        PSCENC =         3.82760131
  Ewald energy   TEWEN  =      3468.15398447
  -Hartree energ DENC   =     -9419.27958186
  -exchange      EXHF   =         0.00000000
  -V(xc)+E(xc)   XCENC  =       -73.19791282
  PAW double counting   =      6429.96766953    -6155.32305252
  entropy T*S    EENTRO =        -0.00013568
  eigenvalues    EBANDS =      -481.80257480
  atomic energy  EATOM  =      6220.14885235
  ---------------------------------------------------
  free energy    TOTEN  =        -7.50515019 eV

  energy without entropy =       -7.50501451  energy(sigma->0) =       -7.50508235


--------------------------------------------------------------------------------------------------------




--------------------------------------- Iteration      1(  15)  ---------------------------------------


    POTLOK:  cpu time      0.8843: real time      0.8850
    SETDIJ:  cpu time      0.7349: real time      0.7355
    TRIAL :  cpu time      0.7577: real time      0.7582
    CORREC:  cpu time      2.2362: real time      2.2370
    CHARGE:  cpu time      0.3832: real time      0.3836
    --------------------------------------------
      LOOP:  cpu time      5.0129: real time      5.0160

 eigenvalue-minimisations  :     0
 total energy-change (2. order) :-0.1539266E-04  (-0.2107700E-05)
 number of electron      66.0000008 magnetization 
 augmentation part       31.8683356 magnetization 

 Free energy of the ion-electron system (eV)
  ---------------------------------------------------
  alpha Z        PSCENC =         3.82760131
  Ewald energy   TEWEN  =      3468.15398447
  -Hartree energ DENC   =     -9419.30520339
  -exchange      EXHF   =         0.00000000
  -V(xc)+E(xc)   XCENC  =       -73.19648539
  PAW double counting   =      6429.80479904    -6155.15818178
  entropy T*S    EENTRO =        -0.00013599
  eigenvalues    EBANDS =      -481.78039653
  atomic energy  EATOM  =      6220.14885235
  ---------------------------------------------------
  free energy    TOTEN  =        -7.50516558 eV

  energy without entropy =       -7.50502959  energy(sigma->0) =       -7.50509759


--------------------------------------------------------------------------------------------------------




--------------------------------------- Iteration      1(  16)  ---------------------------------------


    POTLOK:  cpu time      0.8944: real time      0.8940
    SETDIJ:  cpu time      0.7331: real time      0.7337
    TRIAL :  cpu time      0.7607: real time      0.7609
    CORREC:  cpu time      2.2352: real time      2.2358
    CHARGE:  cpu time      0.3809: real time      0.3808
    --------------------------------------------
      LOOP:  cpu time      5.0064: real time      5.0219

 eigenvalue-minimisations  :     0
 total energy-change (2. order) :-0.2119474E-05  (-0.4595867E-06)
 number of electron      66.0000008 magnetization 
 augmentation part       31.8682968 magnetization 

 Free energy of the ion-electron system (eV)
  ---------------------------------------------------
  alpha Z        PSCENC =         3.82760131
  Ewald energy   TEWEN  =      3468.15398447
  -Hartree energ DENC   =     -9419.33493942
  -exchange      EXHF   =         0.00000000
  -V(xc)+E(xc)   XCENC  =       -73.19625714
  PAW double counting   =      6429.70942715    -6155.06218539
  entropy T*S    EENTRO =        -0.00013636
  eigenvalues    EBANDS =      -481.75151504
  atomic energy  EATOM  =      6220.14885235
  ---------------------------------------------------
  free energy    TOTEN  =        -7.50516770 eV

  energy without entropy =       -7.50503134  energy(sigma->0) =       -7.50509952


--------------------------------------------------------------------------------------------------------




--------------------------------------- Iteration      1(  17)  ---------------------------------------


    POTLOK:  cpu time      0.8957: real time      0.8964
    SETDIJ:  cpu time      0.7346: real time      0.7345
    TRIAL :  cpu time      0.7629: real time      0.7633
    CORREC:  cpu time      2.2306: real time      2.2323
    EDDIAG:  cpu time      0.3313: real time      0.3312
    CHARGE:  cpu time      0.3811: real time      0.3810
    --------------------------------------------
      LOOP:  cpu time      5.3385: real time      5.3552

 eigenvalue-minimisations  :     0
 total energy-change (2. order) :-0.4388539E-06  (-0.1465592E-06)
 number of electron      66.0000008 magnetization 
 augmentation part       31.8682824 magnetization 

 Free energy of the ion-electron system (eV)
  ---------------------------------------------------
  alpha Z        PSCENC =         3.82760131
  Ewald energy   TEWEN  =      3468.15398447
  -Hartree energ DENC   =     -9419.33028505
  -exchange      EXHF   =         0.00000000
  -V(xc)+E(xc)   XCENC  =       -73.19635621
  PAW double counting   =      6429.64060997    -6154.99305983
  entropy T*S    EENTRO =        -0.00013667
  eigenvalues    EBANDS =      -481.75637880
  atomic energy  EATOM  =      6220.14885235
  ---------------------------------------------------
  free energy    TOTEN  =        -7.50516814 eV

  energy without entropy =       -7.50503147  energy(sigma->0) =       -7.50509980


--------------------------------------------------------------------------------------------------------


  average scaling for gradient   1.4295


 average (electrostatic) potential at core
  the test charge radii are     1.1249
  (the norm of the test charge is              1.0000)
       1 -82.5484       2 -82.1914       3 -82.1878       4 -82.2255       5 -82.5445
       6 -82.2251
 
 
 
 E-fermi :  -3.7830     XC(G=0):  -0.4403     alpha+bet : -0.1722

 Fermi energy:        -3.7830270560

 k-point     1 :       0.0000    0.0000    0.0000
  band No.  band energies     occupation 
      1      -8.8913      2.00000
      2      -8.7935      2.00000
      3      -8.5798      2.00000
      4      -8.5009      2.00000
      5      -8.2766      2.00000
      6      -8.1760      2.00000
      7      -8.1526      2.00000
      8      -8.1035      2.00000
      9      -8.0314      2.00000
     10      -7.8828      2.00000
     11      -7.8513      2.00000
     12      -7.7076      2.00000
     13      -7.6544      2.00000
     14      -7.5993      2.00000
     15      -7.4693      2.00000
     16      -7.3617      2.00000
     17      -7.2831      2.00000
     18      -7.0848      2.00000
     19      -7.0606      2.00000
     20      -7.0518      2.00000
     21      -7.0194      2.00000
     22      -7.0105      2.00000
     23      -6.8552      2.00000
     24      -6.8426      2.00000
     25      -6.8363      2.00000
     26      -6.7240      2.00000
     27      -6.7187      2.00000
     28      -6.6372      2.00000
     29      -6.6304      2.00000
     30      -6.3633      2.00000
     31      -6.3523      2.00000
     32      -5.4727      2.00000
     33      -3.9058      1.99948
     34      -3.6605      0.00052
     35      -2.6318      0.00000
     36      -1.7873      0.00000
     37      -1.7450      0.00000
     38      -1.2772      0.00000
     39      -0.8807      0.00000
     40      -0.8516      0.00000
     41      -0.1969      0.00000
     42      -0.1529      0.00000
     43      -0.0427      0.00000
     44       0.1135      0.00000
     45       0.2968      0.00000
     46       0.3088      0.00000
     47       0.4158      0.00000
     48       0.4486      0.00000
     49       0.5137      0.00000
     50       0.5213      0.00000
     51       0.5445      0.00000
     52       0.6845      0.00000
     53       0.6904      0.00000
     54       0.7269      0.00000
     55       0.7358      0.00000
     56       0.7883      0.00000
     57       0.8357      0.00000
     58       0.8382      0.00000
     59       0.8424      0.00000
     60       0.8671      0.00000
     61       0.8809      0.00000
     62       0.9342      0.00000
     63       0.9665      0.00000
     64       1.0177      0.00000


--------------------------------------------------------------------------------------------------------


 soft charge-density along one line, spin component           1
         0         1         2         3         4         5         6         7         8         9
 total charge-density along one line
 
 pseudopotential strength for first ion, spin component:           1
-10.481   0.005   0.004   0.001   0.001 -10.449   0.005   0.004
  0.005 -10.488   0.002  -0.005   0.001   0.005 -10.456   0.002
  0.004   0.002 -10.476   0.006  -0.021   0.004   0.002 -10.444
  0.001  -0.005   0.006 -10.462   0.007   0.001  -0.005   0.005
  0.001   0.001  -0.021   0.007 -10.488   0.001   0.001  -0.020
-10.449   0.005   0.004   0.001   0.001 -10.393   0.005   0.004
  0.005 -10.456   0.002  -0.005   0.001   0.005 -10.399   0.002
  0.004   0.002 -10.444   0.005  -0.020   0.004   0.002 -10.388
  0.001  -0.005   0.005 -10.431   0.006   0.001  -0.005   0.005
  0.001   0.001  -0.020   0.006 -10.455   0.001   0.001  -0.019
  0.003  -0.001  -0.002  -0.005  -0.009   0.003  -0.001  -0.002
  0.005  -0.002  -0.002  -0.009  -0.015   0.005  -0.002  -0.002
 -0.009   0.009   0.020  -0.000   0.035  -0.009   0.009   0.020
 -0.000  -0.037   0.011  -0.009  -0.000  -0.000  -0.035   0.010
 -0.037  -0.000   0.005   0.009  -0.010  -0.036  -0.000   0.005
 -0.010   0.011   0.024  -0.000   0.042  -0.010   0.010   0.023
 -0.000  -0.043   0.013  -0.010   0.000  -0.000  -0.042   0.012
 -0.043  -0.000   0.006   0.011  -0.011  -0.042  -0.000   0.006
 total augmentation occupancy for first ion, spin component:           1
  2.471  -0.115  -0.001  -0.096  -0.036  -0.428   0.129   0.011   0.110   0.040  -0.269   0.055  -0.039   0.044  -0.049  -0.002
 -0.115   2.586  -0.068   0.135   0.022   0.129  -0.568   0.102  -0.165  -0.001   0.165  -0.046   0.026  -0.096   0.042   0.005
 -0.001  -0.068   2.401  -0.035   0.096   0.011   0.102  -0.409   0.083  -0.195   0.108  -0.019   0.037   0.047  -0.013   0.009
 -0.096   0.135  -0.035   2.422   0.030   0.110  -0.165   0.083  -0.377   0.009   0.402  -0.070   0.037  -0.070   0.046  -0.003
 -0.036   0.022   0.096   0.030   2.536   0.040  -0.001  -0.195   0.009  -0.582   0.658  -0.111   0.106   0.001   0.003   0.013
 -0.428   0.129   0.011   0.110   0.040   0.379  -0.141  -0.020  -0.122  -0.044   0.235  -0.049   0.048  -0.042   0.074  -0.004
  0.129  -0.568   0.102  -0.165  -0.001  -0.141   0.540  -0.132   0.192  -0.018  -0.146   0.045  -0.029   0.122  -0.041   0.002
  0.011   0.102  -0.409   0.083  -0.195  -0.020  -0.132   0.401  -0.124   0.281  -0.086   0.009  -0.065  -0.069   0.013   0.005
  0.110  -0.165   0.083  -0.377   0.009  -0.122   0.192  -0.124   0.324  -0.042  -0.357   0.065  -0.036   0.086  -0.060   0.003
  0.040  -0.001  -0.195   0.009  -0.582  -0.044  -0.018   0.281  -0.042   0.610  -0.569   0.088  -0.154  -0.010   0.008   0.013
 -0.269   0.165   0.108   0.402   0.658   0.235  -0.146  -0.086  -0.357  -0.569   1.724  -0.212   0.239  -0.093   0.077  -0.020
  0.055  -0.046  -0.019  -0.070  -0.111  -0.049   0.045   0.009   0.065   0.088  -0.212   0.033  -0.036   0.021  -0.015   0.003
 -0.039   0.026   0.037   0.037   0.106   0.048  -0.029  -0.065  -0.036  -0.154   0.239  -0.036   0.052  -0.010   0.010  -0.005
  0.044  -0.096   0.047  -0.070   0.001  -0.042   0.122  -0.069   0.086  -0.010  -0.093   0.021  -0.010   0.044  -0.019   0.001
 -0.049   0.042  -0.013   0.046   0.003   0.074  -0.041   0.013  -0.060   0.008   0.077  -0.015   0.010  -0.019   0.022  -0.001
 -0.002   0.005   0.009  -0.003   0.013  -0.004   0.002   0.005   0.003   0.013  -0.020   0.003  -0.005   0.001  -0.001   0.001
 -0.002  -0.019   0.005  -0.002   0.000   0.003  -0.007   0.004  -0.006   0.000   0.008  -0.002   0.001  -0.003   0.001  -0.000
 -0.021  -0.002   0.004   0.004  -0.007  -0.004   0.002  -0.001   0.004   0.000  -0.007   0.001  -0.001   0.001  -0.002   0.000


------------------------ aborting loop because EDIFF is reached ----------------------------------------


    FORLOC:  cpu time      0.0571: real time      0.0578
    FORNL :  cpu time      0.5147: real time      0.5146
    STRESS:  cpu time      1.4677: real time      1.4690
    FORCOR:  cpu time      0.7833: real time      0.7830
    OFIELD:  cpu time      0.0010: real time      0.0010

 ---------------------------------------------------------------------------------------------

         DFTD3 V3.0 Rev 1        
 IVDW         = 11
 DF revpbe    
 parameters
 VDW_S6       =    1.0000
 VDW_S8       =    1.0100
 VDW_SR       =    0.9230
 rs18     =    1.0000
 alpha6   =   14.0000
 alpha8   =   16.0000
 k1-k3    =   16.0000    1.3333   -4.0000
 VDW_RADIUS   =   50.2022 A
 VDW_CNRADIUS =   21.1671 A
 Edisp (eV)   -0.36541

 E6    (eV) :    -0.1913
 E8    (eV) :    -0.1741
 % E8        : 47.65
    FORVDW:  cpu time      0.0147: real time      0.0146

  FORCE on cell =-STRESS in cart. coord.  units (eV):
  Direction    XX          YY          ZZ          XY          YZ          ZX
  --------------------------------------------------------------------------------------
  Alpha Z     3.82760     3.82760     3.82760
  Ewald    -812.54606  3549.00178   731.69633   559.15848   -62.01969 -1157.53399
  Hartree  1533.74135  5106.20291  2779.38107   447.55135   -46.65183  -923.48206
  E(xc)    -350.65820  -346.92941  -349.09356     0.54601    -0.08234    -1.22491
  Local   -1694.13036 -9597.91771 -4476.65616 -1002.32050   107.63780  2074.98865
  n-local   -65.26826   -69.25957   -65.02036    -0.69906     0.44931    -0.05133
  augment   553.01949   545.36578   550.30776    -1.02346     0.03325     2.11820
  Kinetic   832.37500   812.47128   826.80964    -2.85512     0.56399     4.48190
  Fock        0.00000     0.00000     0.00000     0.00000     0.00000     0.00000
  vdW         0.10856    -0.05656     0.51455    -0.16639     0.30150    -0.24048
  -------------------------------------------------------------------------------------
  Total       0.46911     2.70611     1.76688     0.19130     0.23199    -0.94402
  in kB       0.09395     0.54196     0.35386     0.03831     0.04646    -0.18906
  external pressure =        0.33 kB  Pullay stress =        0.00 kB


 VOLUME and BASIS-vectors are now :
 -----------------------------------------------------------------------------
  energy-cutoff  :      520.00
  volume of cell :     8000.00
      direct lattice vectors                 reciprocal lattice vectors
    20.000000000  0.000000000  0.000000000     0.050000000  0.000000000  0.000000000
     0.000000000 20.000000000  0.000000000     0.000000000  0.050000000  0.000000000
     0.000000000  0.000000000 20.000000000     0.000000000  0.000000000  0.050000000

  length of vectors
    20.000000000 20.000000000 20.000000000     0.050000000  0.050000000  0.050000000


 FORCES acting on ions:
    Electron-Ion                     Ewald-Force                    Non-Local-Force
 -----------------------------------------------------------------------------------------------
   0.172E+03 0.509E+03 -.211E+03   -.170E+03 -.503E+03 0.209E+03   -.189E+01 -.682E+01 0.206E+01
   -.201E+03 -.603E+02 0.369E+03   0.202E+03 0.604E+02 -.370E+03   -.145E+00 -.110E+00 0.185E+00
   0.202E+03 0.609E+02 -.370E+03   -.202E+03 -.610E+02 0.371E+03   0.136E+00 0.634E-01 -.177E+00
   -.169E+03 0.370E+03 0.393E+03   0.168E+03 -.366E+03 -.390E+03   0.121E+01 -.383E+01 -.303E+01
   -.173E+03 -.509E+03 0.212E+03   0.171E+03 0.502E+03 -.210E+03   0.189E+01 0.681E+01 -.205E+01
   0.169E+03 -.371E+03 -.393E+03   -.167E+03 0.367E+03 0.390E+03   -.120E+01 0.388E+01 0.303E+01
 -----------------------------------------------------------------------------------------------
   0.733E-02 0.691E-02 -.119E-01   -.568E-13 0.000E+00 0.568E-13   -.761E-02 -.923E-02 0.103E-01
 
 
 POSITION                                       TOTAL-FORCE (eV/Angst)
 -----------------------------------------------------------------------------------
      9.18313      6.88882     10.86875        -0.116110     -0.294169      0.149028
     10.63426     10.52739      8.91255         0.146022     -0.061674     -0.295430
      9.36217      9.47298     11.09359        -0.149166      0.060246      0.300577
     10.45351      7.91380      8.71209         0.164285     -0.233288     -0.352956
     10.81850     13.11226      9.12774         0.117715      0.293871     -0.151311
      9.54706     12.08638     11.28548        -0.162746      0.235015      0.350093
 -----------------------------------------------------------------------------------
    total drift:                               -0.000285     -0.002319     -0.001618


--------------------------------------------------------------------------------------------------------



  FREE ENERGIE OF THE ION-ELECTRON SYSTEM (eV)
  ---------------------------------------------------
  free  energy   TOTEN  =        -7.87057546 eV

  energy  without entropy=       -7.87043878  energy(sigma->0) =       -7.87050712
 


--------------------------------------------------------------------------------------------------------


    POTLOK:  cpu time      1.6273: real time      1.6273


--------------------------------------------------------------------------------------------------------


     LOOP+:  cpu time     78.2730: real time     78.6481
    4ORBIT:  cpu time      0.0000: real time      0.0000

 total amount of memory used by VASP MPI-rank0   231690. kBytes
=======================================================================

   base      :      30000. kBytes
   nonlr-proj:       5470. kBytes
   fftplans  :      28721. kBytes
   grid      :     157056. kBytes
   one-center:         93. kBytes
   wavefun   :      10350. kBytes
 
  
  
 General timing and accounting informations for this job:
 ========================================================
  
                  Total CPU time used (sec):       92.215
                            User time (sec):       89.411
                          System time (sec):        2.804
                         Elapsed time (sec):       93.589
  
                   Maximum memory used (kb):     1156580.
                   Average memory used (kb):          N/A
  
                          Minor page faults:        95919
                          Major page faults:            0
                 Voluntary context switches:         5646
