 vasp.6.3.0 20Jan22 (build Apr  1 2022 16:44:48) complex                         
 executed on        HPECrayEX_GCC date 2023.02.09  19:52:16
 running 3072 mpi-ranks, with    1 threads/rank
 distrk:  each k-point on 1536 cores,    2 groups
 distr:  one band on NCORE=   4 cores,  384 groups


--------------------------------------------------------------------------------------------------------


 INCAR:
   SYSTEM = MgO-rocksalt
   ISMEAR = 0
   SIGMA = 0.05
   EDIFF = 1E-6
   ALGO = ALL
   ISTART = 0
   IBRION = -1
   NSW = 0
   ISYM = 2
   DIPOL = 0.5 0.5 0.5
   IDIPOL = 3
   LDIPOL = .TRUE.
   LHFCALC = .TRUE.
   GGA = B5
   AEXX = 0.2
   AGGAX = 0.72
   AGGAC = 0.81
   ALDAC = 0.19
   ENCUT = 520
   PREC = Accurate
   LASPH = .TRUE.
   LREAL = Auto
   ISPIN = 1
   NELM = 200
   NELMIN = 8
   NCORE = 4
   KPAR = 2
   LWAVE = .FALSE.
   LCHARG = .FALSE.

 POTCAR:    PAW_PBE Ag 02Apr2005                  
 -----------------------------------------------------------------------------
|                                                                             |
|           W    W    AA    RRRRR   N    N  II  N    N   GGGG   !!!           |
|           W    W   A  A   R    R  NN   N  II  NN   N  G    G  !!!           |
|           W    W  A    A  R    R  N N  N  II  N N  N  G       !!!           |
|           W WW W  AAAAAA  RRRRR   N  N N  II  N  N N  G  GGG   !            |
|           WW  WW  A    A  R   R   N   NN  II  N   NN  G    G                |
|           W    W  A    A  R    R  N    N  II  N    N   GGGG   !!!           |
|                                                                             |
|     You have selected ISYM=2 for a HF type calculation. This will           |
|     symmetrize the charge density but not the exchange potential. I         |
|     suggest to use ISYM=3 instead. This uses symmetry to obtain the         |
|     orbitals at all k-points in the Brillouin zone, but does not apply      |
|     symmetry to the Hartree potential directly. The resultant charge        |
|     might have lower symmetry than the crystal but, at least, Hartree       |
|     and exchange are fully compatible.                                      |
|                                                                             |
 -----------------------------------------------------------------------------

 POTCAR:    PAW_PBE Ag 02Apr2005                  
   SHA256 =  6550cfa3543261e132c169e1b98a529204624d72be14e2da2e0242bcb74a174d Ag/POTCAR             
   COPYR  = (c) Copyright 02Apr2005 Georg Kresse                                                    
   COPYR  = This file is part of the software VASP. Any use, copying, and all other rights are regul
   COPYR  = If you do not have a valid VASP license, you may not use, copy or distribute this file. 
   VRHFIN =Ag : s1 d10                                                                              
   LEXCH  = PE                                                                                      
   EATOM  =  1037.2675 eV,   76.2370 Ry                                                             
                                                                                                    
   TITEL  = PAW_PBE Ag 02Apr2005                                                                    
   LULTRA =        F    use ultrasoft PP ?                                                          
   IUNSCR =        1    unscreen: 0-lin 1-nonlin 2-no                                               
   RPACOR =    2.000    partial core radius                                                         
   POMASS =  107.868; ZVAL   =   11.000    mass and valenz                                          
   RCORE  =    2.500    outmost cutoff radius                                                       
   RWIGS  =    2.840; RWIGS  =    1.503    wigner-seitz radius (au A)                               
   ENMAX  =  249.844; ENMIN  =  187.383 eV                                                          
   ICORE  =        3    local potential                                                             
   LCOR   =        T    correct aug charges                                                         
   LPAW   =        T    paw PP                                                                      
   EAUG   =  412.496                                                                                
   DEXC   =    0.000                                                                                
   RMAX   =    2.560    core radius for proj-oper                                                   
   RAUG   =    1.300    factor for augmentation sphere                                              
   RDEP   =    2.576    radius for radial grids                                                     
   RDEPT  =    2.072    core radius for aug-charge                                                  
                                                                                                    
   Atomic configuration                                                                             
   12 entries                                                                                       
     n  l   j            E        occ.                                                              
     1  0  0.50    -25324.9161   2.0000                                                             
     2  0  0.50     -3728.5341   2.0000                                                             
     2  1  1.50     -3344.0404   6.0000                                                             
     3  0  0.50      -683.5581   2.0000                                                             
     3  1  1.50      -557.3225   6.0000                                                             
     3  2  2.50      -358.3853  10.0000                                                             
     4  0  0.50       -95.0341   2.0000                                                             
     4  1  1.50       -58.5511   6.0000                                                             
     4  2  2.50        -7.4440  10.0000                                                             
     5  0  0.50        -4.4045   1.0000                                                             
     5  1  0.50        -1.3606   0.0000                                                             
     4  3  2.50        -1.3606   0.0000                                                             
   Description                                                                                      
     l       E           TYP  RCUT    TYP  RCUT                                                     
     2     -7.4439781     23  2.400                                                                 
     2     -8.8045607     23  2.400                                                                 
     0     -4.4044681     23  2.400                                                                 
     0      1.9520038     23  2.400                                                                 
     1     -1.3605826     23  2.500                                                                 
     1     27.2116520     23  2.500                                                                 
     3     -4.0817478     23  2.400                                                                 
  local pseudopotential read in
  partial core-charges read in
  partial kinetic energy density read in
  atomic valenz-charges read in
  non local Contribution for L=           2  read in
    real space projection operators read in
  non local Contribution for L=           2  read in
    real space projection operators read in
  non local Contribution for L=           0  read in
    real space projection operators read in
  non local Contribution for L=           0  read in
    real space projection operators read in
  non local Contribution for L=           1  read in
    real space projection operators read in
  non local Contribution for L=           1  read in
    real space projection operators read in
    PAW grid and wavefunctions read in

   number of l-projection  operators is LMAX  =           6
   number of lm-projection operators is LMMAX =          18

 -----------------------------------------------------------------------------
|                                                                             |
|               ----> ADVICE to this user running VASP <----                  |
|                                                                             |
|     You have a (more or less) 'small supercell' and for smaller cells       |
|     it is recommended to use the reciprocal-space projection scheme!        |
|     The real-space optimization is not efficient for small cells and it     |
|     is also less accurate ...                                               |
|     Therefore, set LREAL=.FALSE. in the INCAR file.                         |
|                                                                             |
 -----------------------------------------------------------------------------

 Optimization of the real space projectors (new method)

 maximal supplied QI-value         = 15.12
 optimisation between [QCUT,QGAM] = [ 11.64, 23.28] = [ 37.95,151.78] Ry 
 Optimized for a Real-space Cutoff    1.45 Angstroem

   l    n(q)    QCUT    max X(q) W(low)/X(q) W(high)/X(q)  e(spline) 
   2      9    11.641    53.897    0.22E-03    0.42E-04    0.28E-06
   2      9    11.641    52.416    0.23E-03    0.44E-04    0.29E-06
   0     10    11.641   122.045    0.51E-04    0.25E-04    0.16E-06
   0     10    11.641    73.629    0.49E-04    0.24E-04    0.16E-06
   1     10    11.641    15.255    0.99E-04    0.55E-04    0.11E-06
   1     10    11.641     9.562    0.81E-04    0.47E-04    0.95E-07
 -----------------------------------------------------------------------------
|                                                                             |
|               ----> ADVICE to this user running VASP <----                  |
|                                                                             |
|     You enforced a specific xc type in the INCAR file but a different       |
|     type was found in the POTCAR file.                                      |
|     I HOPE YOU KNOW WHAT YOU ARE DOING!                                     |
|                                                                             |
 -----------------------------------------------------------------------------

  PAW_PBE Ag 02Apr2005                  :
 energy of atom  1       EATOM=-1037.2675
 kinetic energy error for atom=    0.0047 (will be added to EATOM!!)


 POSCAR: Ag
  positions in direct lattice
  No initial velocities read in
 exchange correlation table for  LEXCH =       12
   RHO(1)=    0.500       N(1)  =     2000
   RHO(2)=  100.500       N(2)  =     4000



--------------------------------------------------------------------------------------------------------


 ion  position               nearest neighbor table
   1  0.493  0.407  0.638-   2 2.57
   2  0.407  0.493  0.638-   1 2.57

  LATTYP: Found a simple tetragonal cell.
 ALAT       =    21.1388521970
 C/A-ratio  =     1.0461251639
  
  Lattice vectors:
  
 A1 = (  21.1388521970,   0.0000000000,   0.0000000000)
 A2 = (   0.0000000000,  21.1388521970,   0.0000000000)
 A3 = (   0.0000000000,   0.0000000000,  22.1138852197)


Analysis of symmetry for initial positions (statically):
=====================================================================
 Subroutine PRICEL returns:
 Original cell was already a primitive cell.
 

 Routine SETGRP: Setting up the symmetry group for a 
 simple tetragonal supercell.


 Subroutine GETGRP returns: Found  8 space group operations
 (whereof  2 operations were pure point group operations)
 out of a pool of 16 trial point group operations.


The static configuration has the point symmetry C_1h.
 The point group associated with its full space group is D_2h.


Analysis of symmetry for dynamics (positions and initial velocities):
=====================================================================
 Subroutine PRICEL returns:
 Original cell was already a primitive cell.
 

 Routine SETGRP: Setting up the symmetry group for a 
 simple tetragonal supercell.


 Subroutine GETGRP returns: Found  8 space group operations
 (whereof  2 operations were pure point group operations)
 out of a pool of 16 trial point group operations.


The dynamic configuration has the point symmetry C_1h.
 The point group associated with its full space group is D_2h.


 Subroutine INISYM returns: Found  8 space group operations
 (whereof  2 operations are pure point group operations),
 and found     1 'primitive' translations


----------------------------------------------------------------------------------------

                                     Primitive cell                                     

  volume of cell :    9881.6133

  direct lattice vectors                    reciprocal lattice vectors
    21.138852197  0.000000000  0.000000000     0.047306258  0.000000000  0.000000000
     0.000000000 21.138852197  0.000000000     0.000000000  0.047306258  0.000000000
     0.000000000  0.000000000 22.113885220     0.000000000  0.000000000  0.045220457

  length of vectors
    21.138852197 21.138852197 22.113885220     0.047306258  0.047306258  0.045220457

  position of ions in fractional coordinates (direct lattice)
     0.492981444  0.407018562  0.637532147
     0.407018532  0.492981474  0.637532147

  ion indices of the primitive-cell ions
   primitive index   ion index
                 1           1
                 2           2

----------------------------------------------------------------------------------------



 KPOINTS: KPOINTS created by Atomic Simulation Env

Automatic generation of k-mesh.
 Grid dimensions read from file:
 generate k-points for:    1    1    1

 Generating k-lattice:

  Cartesian coordinates                     Fractional coordinates (reciprocal lattice)
     0.047306258  0.000000000  0.000000000     1.000000000  0.000000000  0.000000000
     0.000000000  0.047306258  0.000000000     0.000000000  1.000000000  0.000000000
     0.000000000  0.000000000  0.045220457     0.000000000  0.000000000  1.000000000

  Length of vectors
     0.047306258  0.047306258  0.045220457

  Shift w.r.t. Gamma in fractional coordinates (k-lattice)
     0.000000000  0.000000000  0.000000000

 
 Subroutine IBZKPT returns following result:
 ===========================================
 
 Found      1 irreducible k-points:
 
 Following reciprocal coordinates:
            Coordinates               Weight
  0.000000  0.000000  0.000000      1.000000
 
 Following cartesian coordinates:
            Coordinates               Weight
  0.000000  0.000000  0.000000      1.000000
 
 
 Subroutine IBZKPT_HF returns following result:
 ==============================================
 
 Found      1 k-points in 1st BZ
 the following      1 k-points will be used (e.g. in the exchange kernel)
 Following reciprocal coordinates:   # in IRBZ
  0.000000  0.000000  0.000000    1.00000000   1 t-inv F


--------------------------------------------------------------------------------------------------------




 Dimension of arrays:
   k-points           NKPTS =      1   k-points in BZ     NKDIM =      1   number of bands    NBANDS=    384
   number of dos      NEDOS =    301   number of ions     NIONS =      2
   non local maximal  LDIM  =      6   non local SUM 2l+1 LMDIM =     18
   total plane-waves  NPLWV = ******
   max r-space proj   IRMAX =   5559   max aug-charges    IRDMAX=  21597
   dimension x,y,z NGX =   160 NGY =  160 NGZ =  168
   dimension x,y,z NGXF=   320 NGYF=  320 NGZF=  336
   support grid    NGXF=   320 NGYF=  320 NGZF=  336
   ions per type =               2
   NGX,Y,Z   is equivalent  to a cutoff of  12.58, 12.58, 12.63 a.u.
   NGXF,Y,Z  is equivalent  to a cutoff of  25.17, 25.17, 25.26 a.u.

 SYSTEM =  MgO-rocksalt                            
 POSCAR =  Ag                                      

 Startparameter for this run:
   NWRITE =      2    write-flag & timer
   PREC   = accura    normal or accurate (medium, high low for compatibility)
   ISTART =      0    job   : 0-new  1-cont  2-samecut
   ICHARG =      2    charge: 1-file 2-atom 10-const
   ISPIN  =      1    spin polarized calculation?
   LNONCOLLINEAR =      F non collinear calculations
   LSORBIT =      F    spin-orbit coupling
   INIWAV =      1    electr: 0-lowe 1-rand  2-diag
   LASPH  =      T    aspherical Exc in radial PAW
 Electronic Relaxation 1
   ENCUT  =  520.0 eV  38.22 Ry    6.18 a.u.  39.30 39.30 41.12*2*pi/ulx,y,z
   ENINI  =  520.0     initial cutoff
   ENAUG  =  412.5 eV  augmentation charge cutoff
   NELM   =    200;   NELMIN=  8; NELMDL= -5     # of ELM steps 
   EDIFF  = 0.1E-05   stopping-criterion for ELM
   LREAL  =      T    real-space projection
   NLSPLINE    = F    spline interpolate recip. space projectors
   LCOMPAT=      F    compatible to vasp.4.4
   GGA_COMPAT  = T    GGA compatible to vasp.4.4-vasp.4.6
   LMAXPAW     = -100 max onsite density
   LMAXMIX     =    2 max onsite mixed and CHGCAR
   VOSKOWN=      0    Vosko Wilk Nusair interpolation
   ROPT   =   -0.00025
 Ionic relaxation
   EDIFFG = 0.1E-04   stopping-criterion for IOM
   NSW    =      0    number of steps for IOM
   NBLOCK =      1;   KBLOCK =      1    inner block; outer block 
   IBRION =     -1    ionic relax: 0-MD 1-quasi-New 2-CG
   NFREE  =      0    steps in history (QN), initial steepest desc. (CG)
   ISIF   =      0    stress and relaxation
   IWAVPR =     10    prediction:  0-non 1-charg 2-wave 3-comb
   ISYM   =      2    0-nonsym 1-usesym 2-fastsym
   LCORR  =      T    Harris-Foulkes like correction to forces

   POTIM  = 0.5000    time-step for ionic-motion
   TEIN   =    0.0    initial temperature
   TEBEG  =    0.0;   TEEND  =   0.0 temperature during run
   SMASS  =  -3.00    Nose mass-parameter (am)
   estimated Nose-frequenzy (Omega)   =  0.10E-29 period in steps = 0.13E+47 mass=  -0.102E-25a.u.
   SCALEE = 1.0000    scale energy and forces
   NPACO  =    256;   APACO  = 10.0  distance and # of slots for P.C.
   PSTRESS=    0.0 pullay stress

  Mass of Ions in am
   POMASS = 107.87
  Ionic Valenz
   ZVAL   =  11.00
  Atomic Wigner-Seitz radii
   RWIGS  =  -1.00
  virtual crystal weights 
   VCA    =   1.00
   NELECT =      22.0000    total number of electrons
   NUPDOWN=      -1.0000    fix difference up-down

 DOS related values:
   EMIN   =  10.00;   EMAX   =-10.00  energy-range for DOS
   EFERMI =   0.00
   ISMEAR =     0;   SIGMA  =   0.05  broadening in eV -4-tet -1-fermi 0-gaus

 Electronic relaxation 2 (details)
   IALGO  =     58    algorithm
   LDIAG  =      T    sub-space diagonalisation (order eigenvalues)
   LSUBROT=      F    optimize rotation matrix (better conditioning)
   TURBO    =      0    0=normal 1=particle mesh
   IRESTART =      0    0=no restart 2=restart with 2 vectors
   NREBOOT  =      0    no. of reboots
   NMIN     =      0    reboot dimension
   EREF     =   0.00    reference energy to select bands
   IMIX   =      4    mixing-type and parameters
     AMIX     =   0.40;   BMIX     =  1.00
     AMIX_MAG =   1.60;   BMIX_MAG =  1.00
     AMIN     =   0.10
     WC   =   100.;   INIMIX=   1;  MIXPRE=   1;  MAXMIX= -45

 Intra band minimization:
   WEIMIN = 0.0000     energy-eigenvalue tresh-hold
   EBREAK =  0.65E-09  absolut break condition
   DEPER  =   0.30     relativ break condition  

   TIME   =   0.40     timestep for ELM

  volume/ion in A,a.u.               =    4940.81     33342.21
  Fermi-wavevector in a.u.,A,eV,Ry     =   0.213767  0.403960  0.621734  0.045696
  Thomas-Fermi vector in A             =   0.985879

 Write flags
   LWAVE        =      F    write WAVECAR
   LDOWNSAMPLE  =      F    k-point downsampling of WAVECAR
   LCHARG       =      F    write CHGCAR
   LVTOT        =      F    write LOCPOT, total local potential
   LVHAR        =      F    write LOCPOT, Hartree potential only
   LELF         =      F    write electronic localiz. function (ELF)
   LORBIT       =      0    0 simple, 1 ext, 2 COOP (PROOUT), +10 PAW based schemes


 Dipole corrections
   LMONO  =      F    monopole corrections only (constant potential shift)
   LDIPOL =      T    correct potential (dipole corrections)
   IDIPOL =      3    1-x, 2-y, 3-z, 4-all directions 
   EPSILON=  1.0000000 bulk dielectric constant

 Exchange correlation treatment:
   GGA     =    B5    GGA type
   LEXCH   =    12    internal setting for exchange type
   LIBXC   =     F    Libxc                    
   VOSKOWN =     0    Vosko Wilk Nusair interpolation
   EXXOEP  =     0    0=HF, 1=EXX-LHF (local Hartree Fock) 2=EXX OEP
   LHFCALC =     T    Hartree Fock is set to
   LSYMGRAD=     F    symmetrize gradient (conserves proper symmetry)
   PRECFOCK=normal    Normal, Fast or Accurate (Low or Medium for compatibility)
   LRHFCALC=     F    long range Hartree Fock
   LRSCOR  =     F    long range correlation only (use DFT for short range part)
   LTHOMAS =     F    Thomas Fermi screening in HF
   LMODELHF=     F    short range full HF, long range fraction AEXX
   LFOCKACE=     T    use Adeptively-Compressed-Exchange operator
   ENCUT4O =  -1.0   cutoff for four orbital integrals eV
   LMAXFOCK=     4    L truncation for augmentation on plane wave grid
   LMAXFOCKAE=  -1    L truncation for all-electron charge restoration on plane wave grid
   NMAXFOCKAE=   1    number of basis functions for all-electron charge restoration
   LFOCKAEDFT=     F  apply the AE augmentation even for DFT
   NKREDX  =     1    reduce k-point grid by
   NKREDY  =     1    reduce k-point grid by
   NKREDZ  =     1    reduce k-point grid by
   SHIFTRED=     F    shift reduced grid of Gamma
   HFKIDENT=     F    idential grid for each k-point
   ODDONLY =     F    use only odd q-grid points
   EVENONLY=     F    use only even q-grid points
   HFALPHA =   -1.0000 decay constant for conv. correction
   MCALPHA =    0.0000 extent of test-charge in conv. correction in multipole expansion
   AEXX    =    0.2000 exact exchange contribution
   HFSCREEN=    0.0000 screening length (either q_TF or 0.3 A-1)
   HFSCREENC=   0.0000 screening length for correlation (either q_TF or 0.3 A-1)
   HFRCUT  =    0.0000 spherical cutoff for potential kernel
   ALDAX   =    0.8000 LDA exchange part
   AGGAX   =    0.7200 GGA exchange part
   ALDAC   =    0.1900 LDA correlation
   AGGAC   =    0.8100 GGA correlation
   ENCUTFOCK=  -1.0 apply spherical cutoff to Coloumb kernel
   NBANDSGWLOW=     1    first orbital included in HF term
   NBLOCK_FOCK=    64    blocking factor in FOCK_ACC

 Linear response parameters
   LEPSILON=     F    determine dielectric tensor
   LRPA    =     F    only Hartree local field effects (RPA)
   LNABLA  =     F    use nabla operator in PAW spheres
   LVEL    =     F    velocity operator in full k-point grid
   CSHIFT  =0.1000    complex shift for real part using Kramers Kronig
   OMEGAMAX=  -1.0    maximum frequency
   DEG_THRESHOLD= 0.2000000E-02 threshold for treating states as degnerate
   RTIME   =   -0.100 relaxation time in fs
  (WPLASMAI=    0.000 imaginary part of plasma frequency in eV, 0.658/RTIME)
   DFIELD  = 0.0000000 0.0000000 0.0000000 field for delta impulse in time

  Optional k-point grid parameters
   LKPOINTS_OPT  =     F    use optional k-point grid
   KPOINTS_OPT_MODE=     1    mode for optional k-point grid

 Orbital magnetization related:
   ORBITALMAG=     F  switch on orbital magnetization
   LCHIMAG   =     F  perturbation theory with respect to B field
   DQ        =  0.001000  dq finite difference perturbation B field
   LLRAUG    =     F  two centre corrections for induced B field



--------------------------------------------------------------------------------------------------------


 Static calculation
 charge density and potential will be updated during run
 non-spin polarized calculation
 Conjugate gradient for all bands (Freysoldt, et al. PRB 79, 241103 (2009))
 preconditioned conjugated gradient                                        
 perform sub-space diagonalisation
    before iterative eigenvector-optimisation
 modified Broyden-mixing scheme, WC =      100.0
 initial mixing is a Kerker type mixing with AMIX =  0.4000 and BMIX =      1.0000
 Hartree-type preconditioning will be used
 using additional bands          373
 real space projection scheme for non local part
 use partial core corrections
 no Harris-corrections to forces 
 use gradient corrections 
 use of overlap-Matrix (Vanderbilt PP)
 Gauss-broadening in eV      SIGMA  =   0.05


--------------------------------------------------------------------------------------------------------


  energy-cutoff  :      520.00
  volume of cell :     9881.61
      direct lattice vectors                 reciprocal lattice vectors
    21.138852197  0.000000000  0.000000000     0.047306258  0.000000000  0.000000000
     0.000000000 21.138852197  0.000000000     0.000000000  0.047306258  0.000000000
     0.000000000  0.000000000 22.113885220     0.000000000  0.000000000  0.045220457

  length of vectors
    21.138852197 21.138852197 22.113885220     0.047306258  0.047306258  0.045220457



 k-points in units of 2pi/SCALE and weight: KPOINTS created by Atomic Simulation Env
   0.00000000  0.00000000  0.00000000       1.000

 k-points in reciprocal lattice and weights: KPOINTS created by Atomic Simulation Env
   0.00000000  0.00000000  0.00000000       1.000

 position of ions in fractional coordinates (direct lattice) 
   0.49298144  0.40701856  0.63753215
   0.40701853  0.49298147  0.63753215

 position of ions in cartesian coordinates  (Angst):
  10.42106188  8.60390523 14.09831271
   8.60390459 10.42106252 14.09831271



--------------------------------------------------------------------------------------------------------


 k-point   1 :   0.0000 0.0000 0.0000  plane waves:  265979

 maximum and minimum number of plane-waves per node :     66495    66494

 maximum number of plane-waves:    265979
 maximum index in each direction: 
   IXMAX=   39   IYMAX=   39   IZMAX=   41
   IXMIN=  -39   IYMIN=  -39   IZMIN=  -41


 real space projection operators:
  total allocation   :       1502.44 KBytes
  max/ min on nodes  :        377.02        372.09


 parallel 3D FFT for wavefunctions:
    minimum data exchange during FFTs selected (reduces bandwidth)
 parallel 3D FFT for charge:
    minimum data exchange during FFTs selected (reduces bandwidth)


 FFT grid for exact exchange (Hartree Fock) 
  NGX =120; NGY =120; NGZ =126


 Radii for the augmentation spheres in the non-local exchange
 for species   1 augmentation radius   1.406 (default was   1.125)
       energy cutoff for augmentation   2080.0

 real space projection operators:
  total allocation   :        837.50 KBytes
  max/ min on nodes  :        212.89        208.01

 Maximum index for augmentation-charges in exchange          534
  SETUP_FOCK is finished

 total amount of memory used by VASP MPI-rank0   144412. kBytes
=======================================================================

   base      :      30000. kBytes
   nonlr-proj:        976. kBytes
   fftplans  :      61841. kBytes
   grid      :      48291. kBytes
   one-center:         15. kBytes
   HF        :         64. kBytes
   wavefun   :       3225. kBytes

     INWAV:  cpu time      0.0000: real time      0.0000
 Broyden mixing: mesh for mixing (old mesh)
   NGX = 79   NGY = 79   NGZ = 83
  (NGX  =320   NGY  =320   NGZ  =336)
  gives a total of 518003 points

 initial charge density was supplied:
 charge density of overlapping atoms calculated
 number of electron      22.0000000 magnetization 
 keeping initial charge density in first step


--------------------------------------------------------------------------------------------------------


 Maximum index for non-local projection operator         1323
 Maximum index for augmentation-charges            0 (set IRDMAX)


--------------------------------------------------------------------------------------------------------


    FEWALD:  cpu time      0.0034: real time      0.0034


--------------------------------------- Iteration      1(   1)  ---------------------------------------


    POTLOK:  cpu time      0.4260: real time      0.4271
    SETDIJ:  cpu time      0.1909: real time      0.1910
    TRIAL :  cpu time     11.8994: real time     11.9009
    CORREC:  cpu time      0.0009: real time      0.0009
    --------------------------------------------
      LOOP:  cpu time     12.5196: real time     12.5226

 eigenvalue-minimisations  :   768
 total energy-change (2. order) :-0.1723111E+04  (-0.6447683E+03)
 number of electron      22.0000000 magnetization 
 augmentation part       22.0000000 magnetization 

 DIPCOR: dipole corrections for dipol
 direction  3 min pos     1,
 dipolmoment           0.000000      0.000000     -0.000016 electrons x Angstroem
 Tr[quadrupol]     -4016.067117

 energy correction for charged system         0.000000 eV
 dipol+quadrupol energy correction           -0.000000 eV
 added-field ion interaction          0.000022 eV  (added to PSCEN)


 Free energy of the ion-electron system (eV)
  ---------------------------------------------------
  alpha Z        PSCENC =         0.34432903
  Ewald energy   TEWEN  =       220.16056373
  -Hartree energ DENC   =     -2202.23909023
  -exchange      EXHF   =         0.00000000
  -V(xc)+E(xc)   XCENC  =       -23.75833071
  PAW double counting   =      2006.92429865    -3696.04365804
  entropy T*S    EENTRO =        -0.00000000
  eigenvalues    EBANDS =       -98.06808377
  atomic energy  EATOM  =      2069.56939783
  ---------------------------------------------------
  free energy    TOTEN  =     -1723.11057350 eV

  energy without entropy =    -1723.11057350  energy(sigma->0) =    -1723.11057350
  exchange ACFDT corr.  =         0.00000000  see jH, gK, PRB 81, 115126


--------------------------------------------------------------------------------------------------------




--------------------------------------- Iteration      1(   2)  ---------------------------------------


    TRIAL :  cpu time     13.9867: real time     13.9875
    CORREC:  cpu time      0.0006: real time      0.0006
    --------------------------------------------
      LOOP:  cpu time     13.9929: real time     14.0101

 eigenvalue-minimisations  :   768
 total energy-change (2. order) :-0.1183353E+03  (-0.1183353E+03)
 number of electron      22.0000000 magnetization 
 augmentation part       22.0000000 magnetization 

 DIPCOR: dipole corrections for dipol
 direction  3 min pos     1,
 dipolmoment           0.000000      0.000000     -0.000016 electrons x Angstroem
 Tr[quadrupol]     -4016.067117

 energy correction for charged system         0.000000 eV
 dipol+quadrupol energy correction           -0.000000 eV
 added-field ion interaction          0.000022 eV  (added to PSCEN)


 Free energy of the ion-electron system (eV)
  ---------------------------------------------------
  alpha Z        PSCENC =         0.34432903
  Ewald energy   TEWEN  =       220.16056373
  -Hartree energ DENC   =     -2202.23909023
  -exchange      EXHF   =         0.00000000
  -V(xc)+E(xc)   XCENC  =       -23.75833071
  PAW double counting   =      2006.92429865    -3696.04365804
  entropy T*S    EENTRO =        -0.00000000
  eigenvalues    EBANDS =      -216.40339074
  atomic energy  EATOM  =      2069.56939783
  ---------------------------------------------------
  free energy    TOTEN  =     -1841.44588047 eV

  energy without entropy =    -1841.44588047  energy(sigma->0) =    -1841.44588047
  exchange ACFDT corr.  =         0.00000000  see jH, gK, PRB 81, 115126


--------------------------------------------------------------------------------------------------------




--------------------------------------- Iteration      1(   3)  ---------------------------------------


    TRIAL :  cpu time     76.8838: real time     76.8889
    CORREC:  cpu time      0.0014: real time      0.0014
    --------------------------------------------
      LOOP:  cpu time     76.8904: real time     76.9128

 eigenvalue-minimisations  :  1536
 total energy-change (2. order) :-0.5308842E+03  (-0.5308278E+03)
 number of electron      22.0000000 magnetization 
 augmentation part       22.0000000 magnetization 

 DIPCOR: dipole corrections for dipol
 direction  3 min pos     1,
 dipolmoment           0.000000      0.000000     -0.000016 electrons x Angstroem
 Tr[quadrupol]     -4016.067117

 energy correction for charged system         0.000000 eV
 dipol+quadrupol energy correction           -0.000000 eV
 added-field ion interaction          0.000022 eV  (added to PSCEN)


 Free energy of the ion-electron system (eV)
  ---------------------------------------------------
  alpha Z        PSCENC =         0.34432903
  Ewald energy   TEWEN  =       220.16056373
  -Hartree energ DENC   =     -2202.23909023
  -exchange      EXHF   =         0.00000000
  -V(xc)+E(xc)   XCENC  =       -23.75833071
  PAW double counting   =      2006.92429865    -3696.04365804
  entropy T*S    EENTRO =        -0.05643673
  eigenvalues    EBANDS =      -747.23112898
  atomic energy  EATOM  =      2069.56939783
  ---------------------------------------------------
  free energy    TOTEN  =     -2372.33005544 eV

  energy without entropy =    -2372.27361872  energy(sigma->0) =    -2372.30183708
  exchange ACFDT corr.  =         0.00000000  see jH, gK, PRB 81, 115126


--------------------------------------------------------------------------------------------------------




--------------------------------------- Iteration      1(   4)  ---------------------------------------


    TRIAL :  cpu time     13.2310: real time     13.2327
    CORREC:  cpu time      0.0007: real time      0.0007
    --------------------------------------------
      LOOP:  cpu time     13.2614: real time     13.2636

 eigenvalue-minimisations  :   768
 total energy-change (2. order) : 0.5300930E+03  (-0.4910063E+03)
 number of electron      22.0000000 magnetization 
 augmentation part       22.0000000 magnetization 

 DIPCOR: dipole corrections for dipol
 direction  3 min pos     1,
 dipolmoment           0.000000      0.000000     -0.000016 electrons x Angstroem
 Tr[quadrupol]     -4016.067117

 energy correction for charged system         0.000000 eV
 dipol+quadrupol energy correction           -0.000000 eV
 added-field ion interaction          0.000022 eV  (added to PSCEN)


 Free energy of the ion-electron system (eV)
  ---------------------------------------------------
  alpha Z        PSCENC =         0.34432903
  Ewald energy   TEWEN  =       220.16056373
  -Hartree energ DENC   =     -2202.23909023
  -exchange      EXHF   =         0.00000000
  -V(xc)+E(xc)   XCENC  =       -23.75833071
  PAW double counting   =      2006.92429865    -3696.04365804
  entropy T*S    EENTRO =        -0.00000000
  eigenvalues    EBANDS =      -217.19454049
  atomic energy  EATOM  =      2069.56939783
  ---------------------------------------------------
  free energy    TOTEN  =     -1842.23703022 eV

  energy without entropy =    -1842.23703022  energy(sigma->0) =    -1842.23703022
  exchange ACFDT corr.  =         0.00000000  see jH, gK, PRB 81, 115126


--------------------------------------------------------------------------------------------------------




--------------------------------------- Iteration      1(   5)  ---------------------------------------


    POTLOK:  cpu time      0.3932: real time      0.3932
    SETDIJ:  cpu time      0.5987: real time      0.5987
    TRIAL :  cpu time     61.4934: real time     61.5214
    CORREC:  cpu time      0.0005: real time      0.0005
    CHARGE:  cpu time      0.9627: real time      0.9637
    --------------------------------------------
      LOOP:  cpu time     63.4553: real time     63.4991

 eigenvalue-minimisations  :   768
 total energy-change (2. order) : 0.1839540E+04  (-0.1393032E+01)
 number of electron      22.0000001 magnetization 
 augmentation part       10.7688592 magnetization 

 DIPCOR: dipole corrections for dipol
 direction  3 min pos     1,
 dipolmoment           0.000000      0.000000     -0.000016 electrons x Angstroem
 Tr[quadrupol]     -4016.067117

 energy correction for charged system         0.000000 eV
 dipol+quadrupol energy correction           -0.000000 eV
 added-field ion interaction          0.000022 eV  (added to PSCEN)


 Free energy of the ion-electron system (eV)
  ---------------------------------------------------
  alpha Z        PSCENC =         0.34432903
  Ewald energy   TEWEN  =       220.16056373
  -Hartree energ DENC   =     -2202.23909023
  -exchange      EXHF   =        45.05647864
  -V(xc)+E(xc)   XCENC  =       -20.36103303
  PAW double counting   =      2003.32598793    -1923.86672274
  entropy T*S    EENTRO =        -0.00000000
  eigenvalues    EBANDS =      -194.68721393
  atomic energy  EATOM  =      2069.56939783
  ---------------------------------------------------
  free energy    TOTEN  =        -2.69730276 eV

  energy without entropy =       -2.69730276  energy(sigma->0) =       -2.69730276
  exchange ACFDT corr.  =        -0.00000000  see jH, gK, PRB 81, 115126


--------------------------------------------------------------------------------------------------------




--------------------------------------- Iteration      1(   6)  ---------------------------------------


    POTLOK:  cpu time      0.3914: real time      0.3914
    SETDIJ:  cpu time      0.6058: real time      0.6063
    TRIAL :  cpu time     96.0341: real time     96.1560
    CORREC:  cpu time     49.8747: real time     49.9038
    CHARGE:  cpu time      0.8502: real time      0.8507
    --------------------------------------------
      LOOP:  cpu time    147.7835: real time    147.9360

 eigenvalue-minimisations  :     0
 total energy-change (2. order) : 0.5798512E+00  (-0.3450019E+00)
 number of electron      22.0000001 magnetization 
 augmentation part       10.6618873 magnetization 

 DIPCOR: dipole corrections for dipol
 direction  3 min pos     1,
 dipolmoment           0.000000      0.000000     -0.001183 electrons x Angstroem
 Tr[quadrupol]     -4016.111983

 energy correction for charged system         0.000000 eV
 dipol+quadrupol energy correction           -0.000000 eV
 added-field ion interaction          0.001566 eV  (added to PSCEN)


 Free energy of the ion-electron system (eV)
  ---------------------------------------------------
  alpha Z        PSCENC =         0.34431872
  Ewald energy   TEWEN  =       220.16056373
  -Hartree energ DENC   =     -2234.73837962
  -exchange      EXHF   =        43.46936870
  -V(xc)+E(xc)   XCENC  =       -19.88683076
  PAW double counting   =      2235.87377259    -2157.74970921
  entropy T*S    EENTRO =        -0.00000000
  eigenvalues    EBANDS =      -159.15995352
  atomic energy  EATOM  =      2069.56939783
  ---------------------------------------------------
  free energy    TOTEN  =        -2.11745156 eV

  energy without entropy =       -2.11745156  energy(sigma->0) =       -2.11745156
  exchange ACFDT corr.  =        -0.00000000  see jH, gK, PRB 81, 115126


--------------------------------------------------------------------------------------------------------




--------------------------------------- Iteration      1(   7)  ---------------------------------------


    POTLOK:  cpu time      0.4154: real time      0.4154
    SETDIJ:  cpu time      0.5936: real time      0.5937
    TRIAL :  cpu time     48.0194: real time     48.0459
    CORREC:  cpu time     49.6793: real time     49.7051
    CHARGE:  cpu time      0.8516: real time      0.8522
    --------------------------------------------
      LOOP:  cpu time     99.5691: real time     99.7056

 eigenvalue-minimisations  :     0
 total energy-change (2. order) :-0.3446901E+00  (-0.6931025E-01)
 number of electron      22.0000001 magnetization 
 augmentation part       10.7181033 magnetization 

 DIPCOR: dipole corrections for dipol
 direction  3 min pos     1,
 dipolmoment           0.000000      0.000000     -0.000557 electrons x Angstroem
 Tr[quadrupol]     -4016.136083

 energy correction for charged system         0.000000 eV
 dipol+quadrupol energy correction           -0.000000 eV
 added-field ion interaction          0.000737 eV  (added to PSCEN)


 Free energy of the ion-electron system (eV)
  ---------------------------------------------------
  alpha Z        PSCENC =         0.34603375
  Ewald energy   TEWEN  =       220.16056373
  -Hartree energ DENC   =     -2210.93030151
  -exchange      EXHF   =        43.08726970
  -V(xc)+E(xc)   XCENC  =       -20.36770537
  PAW double counting   =      2206.05606756    -2127.57339273
  entropy T*S    EENTRO =        -0.00000000
  eigenvalues    EBANDS =      -182.81007466
  atomic energy  EATOM  =      2069.56939783
  ---------------------------------------------------
  free energy    TOTEN  =        -2.46214171 eV

  energy without entropy =       -2.46214171  energy(sigma->0) =       -2.46214171
  exchange ACFDT corr.  =        -0.00000000  see jH, gK, PRB 81, 115126


--------------------------------------------------------------------------------------------------------




--------------------------------------- Iteration      1(   8)  ---------------------------------------


    POTLOK:  cpu time      0.4216: real time      0.4217
    SETDIJ:  cpu time      0.5919: real time      0.5919
    TRIAL :  cpu time     48.5069: real time     48.5380
    CORREC:  cpu time     49.2446: real time     49.2739
    CHARGE:  cpu time      0.8497: real time      0.8502
    --------------------------------------------
      LOOP:  cpu time     99.6373: real time     99.6988

 eigenvalue-minimisations  :     0
 total energy-change (2. order) :-0.6947186E-01  (-0.3155357E-01)
 number of electron      22.0000001 magnetization 
 augmentation part       10.6963649 magnetization 

 DIPCOR: dipole corrections for dipol
 direction  3 min pos     1,
 dipolmoment           0.000000      0.000000     -0.000077 electrons x Angstroem
 Tr[quadrupol]     -4016.128490

 energy correction for charged system         0.000000 eV
 dipol+quadrupol energy correction           -0.000000 eV
 added-field ion interaction          0.000103 eV  (added to PSCEN)


 Free energy of the ion-electron system (eV)
  ---------------------------------------------------
  alpha Z        PSCENC =         0.34478242
  Ewald energy   TEWEN  =       220.16056373
  -Hartree energ DENC   =     -2215.50534777
  -exchange      EXHF   =        43.21150180
  -V(xc)+E(xc)   XCENC  =       -20.20641702
  PAW double counting   =      2203.90671181    -2125.44791924
  entropy T*S    EENTRO =        -0.00000000
  eigenvalues    EBANDS =      -178.56488713
  atomic energy  EATOM  =      2069.56939783
  ---------------------------------------------------
  free energy    TOTEN  =        -2.53161357 eV

  energy without entropy =       -2.53161357  energy(sigma->0) =       -2.53161357
  exchange ACFDT corr.  =        -0.00000000  see jH, gK, PRB 81, 115126


--------------------------------------------------------------------------------------------------------




--------------------------------------- Iteration      1(   9)  ---------------------------------------


    POTLOK:  cpu time      0.4201: real time      0.4201
    SETDIJ:  cpu time      0.6067: real time      0.6067
    TRIAL :  cpu time     48.1111: real time     48.1392
    CORREC:  cpu time     49.5954: real time     49.6226
    CHARGE:  cpu time      0.8496: real time      0.8502
    --------------------------------------------
      LOOP:  cpu time     99.5876: real time     99.6600

 eigenvalue-minimisations  :     0
 total energy-change (2. order) :-0.3143585E-01  (-0.8317544E-02)
 number of electron      22.0000001 magnetization 
 augmentation part       10.7031173 magnetization 

 DIPCOR: dipole corrections for dipol
 direction  3 min pos     1,
 dipolmoment           0.000000      0.000000     -0.000005 electrons x Angstroem
 Tr[quadrupol]     -4016.100841

 energy correction for charged system         0.000000 eV
 dipol+quadrupol energy correction           -0.000000 eV
 added-field ion interaction          0.000006 eV  (added to PSCEN)


 Free energy of the ion-electron system (eV)
  ---------------------------------------------------
  alpha Z        PSCENC =         0.34435338
  Ewald energy   TEWEN  =       220.16056373
  -Hartree energ DENC   =     -2211.01295720
  -exchange      EXHF   =        43.12338038
  -V(xc)+E(xc)   XCENC  =       -20.30823502
  PAW double counting   =      2196.91566918    -2118.39392348
  entropy T*S    EENTRO =        -0.00000000
  eigenvalues    EBANDS =      -182.96129823
  atomic energy  EATOM  =      2069.56939783
  ---------------------------------------------------
  free energy    TOTEN  =        -2.56304942 eV

  energy without entropy =       -2.56304942  energy(sigma->0) =       -2.56304942
  exchange ACFDT corr.  =        -0.00000000  see jH, gK, PRB 81, 115126


--------------------------------------------------------------------------------------------------------




--------------------------------------- Iteration      1(  10)  ---------------------------------------


    POTLOK:  cpu time      0.4141: real time      0.4142
    SETDIJ:  cpu time      0.5787: real time      0.5787
    TRIAL :  cpu time     48.2930: real time     48.3192
    CORREC:  cpu time     49.9920: real time     50.0211
    CHARGE:  cpu time      0.8512: real time      0.8517
    --------------------------------------------
      LOOP:  cpu time    100.1628: real time    100.2190

 eigenvalue-minimisations  :     0
 total energy-change (2. order) :-0.8336944E-02  (-0.1571307E-02)
 number of electron      22.0000001 magnetization 
 augmentation part       10.7024886 magnetization 

 DIPCOR: dipole corrections for dipol
 direction  3 min pos     1,
 dipolmoment           0.000000      0.000000     -0.000002 electrons x Angstroem
 Tr[quadrupol]     -4016.092557

 energy correction for charged system         0.000000 eV
 dipol+quadrupol energy correction           -0.000000 eV
 added-field ion interaction          0.000002 eV  (added to PSCEN)


 Free energy of the ion-electron system (eV)
  ---------------------------------------------------
  alpha Z        PSCENC =         0.34431551
  Ewald energy   TEWEN  =       220.16056373
  -Hartree energ DENC   =     -2210.62047634
  -exchange      EXHF   =        43.12016267
  -V(xc)+E(xc)   XCENC  =       -20.31050358
  PAW double counting   =      2197.09735450    -2118.55078751
  entropy T*S    EENTRO =        -0.00000000
  eigenvalues    EBANDS =      -183.38141318
  atomic energy  EATOM  =      2069.56939783
  ---------------------------------------------------
  free energy    TOTEN  =        -2.57138637 eV

  energy without entropy =       -2.57138637  energy(sigma->0) =       -2.57138637
  exchange ACFDT corr.  =        -0.00000000  see jH, gK, PRB 81, 115126


--------------------------------------------------------------------------------------------------------




--------------------------------------- Iteration      1(  11)  ---------------------------------------


    POTLOK:  cpu time      0.4300: real time      0.4301
    SETDIJ:  cpu time      0.5687: real time      0.5688
    TRIAL :  cpu time     47.9131: real time     47.9405
    CORREC:  cpu time     49.4964: real time     49.5237
    CHARGE:  cpu time      0.8524: real time      0.8529
    --------------------------------------------
      LOOP:  cpu time     99.2656: real time     99.3391

 eigenvalue-minimisations  :     0
 total energy-change (2. order) :-0.1572603E-02  (-0.2231813E-03)
 number of electron      22.0000001 magnetization 
 augmentation part       10.7031997 magnetization 

 DIPCOR: dipole corrections for dipol
 direction  3 min pos     1,
 dipolmoment           0.000000      0.000000     -0.000001 electrons x Angstroem
 Tr[quadrupol]     -4016.090482

 energy correction for charged system         0.000000 eV
 dipol+quadrupol energy correction           -0.000000 eV
 added-field ion interaction          0.000002 eV  (added to PSCEN)


 Free energy of the ion-electron system (eV)
  ---------------------------------------------------
  alpha Z        PSCENC =         0.34431019
  Ewald energy   TEWEN  =       220.16056373
  -Hartree energ DENC   =     -2210.20124276
  -exchange      EXHF   =        43.11163782
  -V(xc)+E(xc)   XCENC  =       -20.32029699
  PAW double counting   =      2196.76884350    -2118.21102359
  entropy T*S    EENTRO =        -0.00000000
  eigenvalues    EBANDS =      -183.79514870
  atomic energy  EATOM  =      2069.56939783
  ---------------------------------------------------
  free energy    TOTEN  =        -2.57295897 eV

  energy without entropy =       -2.57295897  energy(sigma->0) =       -2.57295897
  exchange ACFDT corr.  =        -0.00000000  see jH, gK, PRB 81, 115126


--------------------------------------------------------------------------------------------------------




--------------------------------------- Iteration      1(  12)  ---------------------------------------


    POTLOK:  cpu time      0.4156: real time      0.4156
    SETDIJ:  cpu time      0.5878: real time      0.5878
    TRIAL :  cpu time     47.9120: real time     47.9403
    CORREC:  cpu time     49.4124: real time     49.4395
    CHARGE:  cpu time      0.8644: real time      0.8649
    --------------------------------------------
      LOOP:  cpu time     99.2148: real time     99.2713

 eigenvalue-minimisations  :     0
 total energy-change (2. order) :-0.2318342E-03  (-0.3946645E-04)
 number of electron      22.0000001 magnetization 
 augmentation part       10.7025142 magnetization 

 DIPCOR: dipole corrections for dipol
 direction  3 min pos     1,
 dipolmoment           0.000000      0.000000     -0.000001 electrons x Angstroem
 Tr[quadrupol]     -4016.090505

 energy correction for charged system         0.000000 eV
 dipol+quadrupol energy correction           -0.000000 eV
 added-field ion interaction          0.000002 eV  (added to PSCEN)


 Free energy of the ion-electron system (eV)
  ---------------------------------------------------
  alpha Z        PSCENC =         0.34430967
  Ewald energy   TEWEN  =       220.16056373
  -Hartree energ DENC   =     -2210.31178713
  -exchange      EXHF   =        43.11333699
  -V(xc)+E(xc)   XCENC  =       -20.31777346
  PAW double counting   =      2196.64896557    -2118.09202682
  entropy T*S    EENTRO =        -0.00000000
  eigenvalues    EBANDS =      -183.68817719
  atomic energy  EATOM  =      2069.56939783
  ---------------------------------------------------
  free energy    TOTEN  =        -2.57319080 eV

  energy without entropy =       -2.57319080  energy(sigma->0) =       -2.57319080
  exchange ACFDT corr.  =        -0.00000000  see jH, gK, PRB 81, 115126


--------------------------------------------------------------------------------------------------------




--------------------------------------- Iteration      1(  13)  ---------------------------------------


    POTLOK:  cpu time      0.4122: real time      0.4123
    SETDIJ:  cpu time      0.5785: real time      0.5786
    TRIAL :  cpu time     47.7685: real time     47.7952
    CORREC:  cpu time     49.7078: real time     49.7345
    CHARGE:  cpu time      0.8508: real time      0.8513
    --------------------------------------------
      LOOP:  cpu time     99.3239: real time     99.3974

 eigenvalue-minimisations  :     0
 total energy-change (2. order) :-0.4127376E-04  (-0.1310497E-04)
 number of electron      22.0000001 magnetization 
 augmentation part       10.7029777 magnetization 

 DIPCOR: dipole corrections for dipol
 direction  3 min pos     1,
 dipolmoment           0.000000      0.000000     -0.000001 electrons x Angstroem
 Tr[quadrupol]     -4016.091031

 energy correction for charged system         0.000000 eV
 dipol+quadrupol energy correction           -0.000000 eV
 added-field ion interaction          0.000001 eV  (added to PSCEN)


 Free energy of the ion-electron system (eV)
  ---------------------------------------------------
  alpha Z        PSCENC =         0.34430887
  Ewald energy   TEWEN  =       220.16056373
  -Hartree energ DENC   =     -2210.22128431
  -exchange      EXHF   =        43.11150681
  -V(xc)+E(xc)   XCENC  =       -20.32002067
  PAW double counting   =      2196.47056169    -2117.91282890
  entropy T*S    EENTRO =        -0.00000000
  eigenvalues    EBANDS =      -183.77543713
  atomic energy  EATOM  =      2069.56939783
  ---------------------------------------------------
  free energy    TOTEN  =        -2.57323208 eV

  energy without entropy =       -2.57323208  energy(sigma->0) =       -2.57323208
  exchange ACFDT corr.  =        -0.00000000  see jH, gK, PRB 81, 115126


--------------------------------------------------------------------------------------------------------




--------------------------------------- Iteration      1(  14)  ---------------------------------------


    POTLOK:  cpu time      0.4082: real time      0.4082
    SETDIJ:  cpu time      0.6196: real time      0.6197
    TRIAL :  cpu time     48.0688: real time     48.0966
    CORREC:  cpu time     49.3316: real time     49.3619
    CHARGE:  cpu time      0.8494: real time      0.8499
    --------------------------------------------
      LOOP:  cpu time     99.2823: real time     99.3591

 eigenvalue-minimisations  :     0
 total energy-change (2. order) :-0.1335843E-04  (-0.2720219E-05)
 number of electron      22.0000001 magnetization 
 augmentation part       10.7027925 magnetization 

 DIPCOR: dipole corrections for dipol
 direction  3 min pos     1,
 dipolmoment           0.000000      0.000000     -0.000001 electrons x Angstroem
 Tr[quadrupol]     -4016.091400

 energy correction for charged system         0.000000 eV
 dipol+quadrupol energy correction           -0.000000 eV
 added-field ion interaction          0.000001 eV  (added to PSCEN)


 Free energy of the ion-electron system (eV)
  ---------------------------------------------------
  alpha Z        PSCENC =         0.34430879
  Ewald energy   TEWEN  =       220.16056373
  -Hartree energ DENC   =     -2210.30079589
  -exchange      EXHF   =        43.11301951
  -V(xc)+E(xc)   XCENC  =       -20.31793331
  PAW double counting   =      2196.54710922    -2117.99020035
  entropy T*S    EENTRO =        -0.00000000
  eigenvalues    EBANDS =      -183.69871496
  atomic energy  EATOM  =      2069.56939783
  ---------------------------------------------------
  free energy    TOTEN  =        -2.57324544 eV

  energy without entropy =       -2.57324544  energy(sigma->0) =       -2.57324544
  exchange ACFDT corr.  =        -0.00000000  see jH, gK, PRB 81, 115126


--------------------------------------------------------------------------------------------------------




--------------------------------------- Iteration      1(  15)  ---------------------------------------


    POTLOK:  cpu time      0.4170: real time      0.4170
    SETDIJ:  cpu time      0.5776: real time      0.5776
    TRIAL :  cpu time     48.0583: real time     48.0855
    CORREC:  cpu time     49.9031: real time     49.9305
    CHARGE:  cpu time      0.8480: real time      0.8486
    --------------------------------------------
      LOOP:  cpu time     99.8137: real time     99.8819

 eigenvalue-minimisations  :     0
 total energy-change (2. order) :-0.2719841E-05  (-0.2812235E-05)
 number of electron      22.0000001 magnetization 
 augmentation part       10.7026927 magnetization 

 DIPCOR: dipole corrections for dipol
 direction  3 min pos     1,
 dipolmoment           0.000000      0.000000     -0.000001 electrons x Angstroem
 Tr[quadrupol]     -4016.091427

 energy correction for charged system         0.000000 eV
 dipol+quadrupol energy correction           -0.000000 eV
 added-field ion interaction          0.000001 eV  (added to PSCEN)


 Free energy of the ion-electron system (eV)
  ---------------------------------------------------
  alpha Z        PSCENC =         0.34430870
  Ewald energy   TEWEN  =       220.16056373
  -Hartree energ DENC   =     -2210.27991847
  -exchange      EXHF   =        43.11256580
  -V(xc)+E(xc)   XCENC  =       -20.31845418
  PAW double counting   =      2196.55062542    -2117.99341280
  entropy T*S    EENTRO =        -0.00000000
  eigenvalues    EBANDS =      -183.71892418
  atomic energy  EATOM  =      2069.56939783
  ---------------------------------------------------
  free energy    TOTEN  =        -2.57324816 eV

  energy without entropy =       -2.57324816  energy(sigma->0) =       -2.57324816
  exchange ACFDT corr.  =        -0.00000000  see jH, gK, PRB 81, 115126


--------------------------------------------------------------------------------------------------------




--------------------------------------- Iteration      1(  16)  ---------------------------------------


    POTLOK:  cpu time      0.4195: real time      0.4195
    SETDIJ:  cpu time      0.5763: real time      0.5763
    TRIAL :  cpu time     48.3460: real time     48.3733
    CORREC:  cpu time     50.1355: real time     50.1638
    CHARGE:  cpu time      0.8496: real time      0.8502
    --------------------------------------------
      LOOP:  cpu time    100.3575: real time    100.4141

 eigenvalue-minimisations  :     0
 total energy-change (2. order) :-0.2976601E-06  (-0.1466557E-05)
 number of electron      22.0000001 magnetization 
 augmentation part       10.7028378 magnetization 

 DIPCOR: dipole corrections for dipol
 direction  3 min pos     1,
 dipolmoment           0.000000      0.000000     -0.000001 electrons x Angstroem
 Tr[quadrupol]     -4016.091656

 energy correction for charged system         0.000000 eV
 dipol+quadrupol energy correction           -0.000000 eV
 added-field ion interaction          0.000001 eV  (added to PSCEN)


 Free energy of the ion-electron system (eV)
  ---------------------------------------------------
  alpha Z        PSCENC =         0.34430868
  Ewald energy   TEWEN  =       220.16056373
  -Hartree energ DENC   =     -2210.27509846
  -exchange      EXHF   =        43.11237859
  -V(xc)+E(xc)   XCENC  =       -20.31869059
  PAW double counting   =      2196.59013282    -2118.03272853
  entropy T*S    EENTRO =        -0.00000000
  eigenvalues    EBANDS =      -183.72351250
  atomic energy  EATOM  =      2069.56939783
  ---------------------------------------------------
  free energy    TOTEN  =        -2.57324845 eV

  energy without entropy =       -2.57324845  energy(sigma->0) =       -2.57324845
  exchange ACFDT corr.  =        -0.00000000  see jH, gK, PRB 81, 115126


--------------------------------------------------------------------------------------------------------




--------------------------------------- Iteration      1(  17)  ---------------------------------------


    POTLOK:  cpu time      0.4042: real time      0.4042
    SETDIJ:  cpu time      0.5853: real time      0.5853
    TRIAL :  cpu time     48.1502: real time     48.1766
    CORREC:  cpu time     49.5921: real time     49.6177
    CHARGE:  cpu time      0.8499: real time      0.8504
    --------------------------------------------
      LOOP:  cpu time     99.5881: real time     99.6557

 eigenvalue-minimisations  :     0
 total energy-change (2. order) :-0.1865848E-05  (-0.1372682E-06)
 number of electron      22.0000001 magnetization 
 augmentation part       10.7028364 magnetization 

 DIPCOR: dipole corrections for dipol
 direction  3 min pos     1,
 dipolmoment           0.000000      0.000000     -0.000001 electrons x Angstroem
 Tr[quadrupol]     -4016.091594

 energy correction for charged system         0.000000 eV
 dipol+quadrupol energy correction           -0.000000 eV
 added-field ion interaction          0.000001 eV  (added to PSCEN)


 Free energy of the ion-electron system (eV)
  ---------------------------------------------------
  alpha Z        PSCENC =         0.34430865
  Ewald energy   TEWEN  =       220.16056373
  -Hartree energ DENC   =     -2210.29404884
  -exchange      EXHF   =        43.11277378
  -V(xc)+E(xc)   XCENC  =       -20.31822736
  PAW double counting   =      2196.59996773    -2118.04274198
  entropy T*S    EENTRO =        -0.00000000
  eigenvalues    EBANDS =      -183.70524386
  atomic energy  EATOM  =      2069.56939783
  ---------------------------------------------------
  free energy    TOTEN  =        -2.57325032 eV

  energy without entropy =       -2.57325032  energy(sigma->0) =       -2.57325032
  exchange ACFDT corr.  =        -0.00000000  see jH, gK, PRB 81, 115126


--------------------------------------------------------------------------------------------------------




--------------------------------------- Iteration      1(  18)  ---------------------------------------


    POTLOK:  cpu time      0.4181: real time      0.4187
    SETDIJ:  cpu time      0.5784: real time      0.5785
    TRIAL :  cpu time     48.3261: real time     48.3496
    CORREC:  cpu time     49.1614: real time     49.1885
    EDDIAG:  cpu time     48.1178: real time     48.1426
    CHARGE:  cpu time      0.8457: real time      0.8462
    --------------------------------------------
      LOOP:  cpu time    147.4553: real time    147.5464

 eigenvalue-minimisations  :     0
 total energy-change (2. order) : 0.1842086E-06  (-0.1164237E-06)
 number of electron      22.0000001 magnetization 
 augmentation part       10.7028133 magnetization 

 DIPCOR: dipole corrections for dipol
 direction  3 min pos     1,
 dipolmoment           0.000000      0.000000     -0.000001 electrons x Angstroem
 Tr[quadrupol]     -4016.091560

 energy correction for charged system         0.000000 eV
 dipol+quadrupol energy correction           -0.000000 eV
 added-field ion interaction          0.000001 eV  (added to PSCEN)


 Free energy of the ion-electron system (eV)
  ---------------------------------------------------
  alpha Z        PSCENC =         0.34430865
  Ewald energy   TEWEN  =       220.16056373
  -Hartree energ DENC   =     -2210.29315063
  -exchange      EXHF   =        43.11268966
  -V(xc)+E(xc)   XCENC  =       -20.31821837
  PAW double counting   =      2196.59596012    -2118.03871888
  entropy T*S    EENTRO =        -0.00000000
  eigenvalues    EBANDS =      -183.70615459
  atomic energy  EATOM  =      2069.56939783
  ---------------------------------------------------
  free energy    TOTEN  =        -2.57325014 eV

  energy without entropy =       -2.57325014  energy(sigma->0) =       -2.57325014
  exchange ACFDT corr.  =        -0.00000000  see jH, gK, PRB 81, 115126


--------------------------------------------------------------------------------------------------------


  average scaling for gradient   1.0694


 average (electrostatic) potential at core
  the test charge radii are     1.1249
  (the norm of the test charge is              1.0000)
       1 -76.7708       2 -76.7708



 E-fermi :  -5.3008     XC(G=0):  -0.1173     alpha+bet : -0.0465

 Fermi energy:        -5.3007551675

 k-point     1 :       0.0000    0.0000    0.0000
  band No.  band energies     occupation 
      1      -9.6213      2.00000
      2      -9.1472      2.00000
      3      -9.1471      2.00000
      4      -8.6329      2.00000
      5      -8.6329      2.00000
      6      -8.4379      2.00000
      7      -8.4379      2.00000
      8      -8.1435      2.00000
      9      -8.1435      2.00000
     10      -7.9545      2.00000
     11      -5.5569      2.00000
     12      -2.5639      0.00000
     13      -0.6668      0.00000
     14      -0.6667      0.00000
     15      -0.2120      0.00000
     16       0.0909      0.00000
     17       0.3340      0.00000
     18       0.3491      0.00000
     19       0.3559      0.00000
     20       0.3670      0.00000
     21       0.4011      0.00000
     22       0.4424      0.00000
     23       0.5430      0.00000
     24       0.6119      0.00000
     25       0.6563      0.00000
     26       0.6620      0.00000
     27       0.6708      0.00000
     28       0.6769      0.00000
     29       0.6895      0.00000
     30       0.7001      0.00000
     31       0.7110      0.00000
     32       0.7464      0.00000
     33       0.7672      0.00000
     34       0.8194      0.00000
     35       0.8596      0.00000
     36       0.9216      0.00000
     37       0.9715      0.00000
     38       0.9945      0.00000
     39       1.0064      0.00000
     40       1.0239      0.00000
     41       1.0554      0.00000
     42       1.0598      0.00000
     43       1.0890      0.00000
     44       1.2022      0.00000
     45       1.2779      0.00000
     46       1.2930      0.00000
     47       1.3739      0.00000
     48       1.3766      0.00000
     49       1.3938      0.00000
     50       1.4596      0.00000
     51       1.5177      0.00000
     52       1.5301      0.00000
     53       1.5451      0.00000
     54       1.5778      0.00000
     55       1.5932      0.00000
     56       1.5983      0.00000
     57       1.6227      0.00000
     58       1.6326      0.00000
     59       1.6411      0.00000
     60       1.6543      0.00000
     61       1.6544      0.00000
     62       1.6546      0.00000
     63       1.6848      0.00000
     64       1.6987      0.00000
     65       1.6996      0.00000
     66       1.7056      0.00000
     67       1.7065      0.00000
     68       1.7394      0.00000
     69       1.7469      0.00000
     70       1.7552      0.00000
     71       1.7620      0.00000
     72       1.7935      0.00000
     73       1.7941      0.00000
     74       1.8380      0.00000
     75       1.8758      0.00000
     76       1.8908      0.00000
     77       1.9036      0.00000
     78       1.9134      0.00000
     79       1.9340      0.00000
     80       1.9418      0.00000
     81       1.9638      0.00000
     82       1.9689      0.00000
     83       1.9735      0.00000
     84       1.9858      0.00000
     85       1.9900      0.00000
     86       1.9901      0.00000
     87       1.9920      0.00000
     88       2.0031      0.00000
     89       2.0060      0.00000
     90       2.0166      0.00000
     91       2.0188      0.00000
     92       2.0748      0.00000
     93       2.1390      0.00000
     94       2.1701      0.00000
     95       2.2415      0.00000
     96       2.2444      0.00000
     97       2.2536      0.00000
     98       2.2882      0.00000
     99       2.4999      0.00000
    100       2.5244      0.00000
    101       2.5332      0.00000
    102       2.5729      0.00000
    103       2.5862      0.00000
    104       2.6181      0.00000
    105       2.6451      0.00000
    106       2.6472      0.00000
    107       2.6802      0.00000
    108       2.7195      0.00000
    109       2.7316      0.00000
    110       2.7352      0.00000
    111       2.7607      0.00000
    112       2.7801      0.00000
    113       2.8001      0.00000
    114       2.8136      0.00000
    115       2.8498      0.00000
    116       2.8700      0.00000
    117       2.8849      0.00000
    118       2.8854      0.00000
    119       2.8941      0.00000
    120       2.9121      0.00000
    121       2.9244      0.00000
    122       2.9273      0.00000
    123       2.9346      0.00000
    124       2.9439      0.00000
    125       2.9445      0.00000
    126       2.9571      0.00000
    127       2.9622      0.00000
    128       2.9732      0.00000
    129       2.9757      0.00000
    130       2.9884      0.00000
    131       2.9943      0.00000
    132       3.0037      0.00000
    133       3.0078      0.00000
    134       3.0109      0.00000
    135       3.0121      0.00000
    136       3.0532      0.00000
    137       3.0570      0.00000
    138       3.1026      0.00000
    139       3.1076      0.00000
    140       3.1110      0.00000
    141       3.1208      0.00000
    142       3.1251      0.00000
    143       3.1380      0.00000
    144       3.1430      0.00000
    145       3.1636      0.00000
    146       3.2351      0.00000
    147       3.2518      0.00000
    148       3.2803      0.00000
    149       3.2863      0.00000
    150       3.3016      0.00000
    151       3.3112      0.00000
    152       3.3209      0.00000
    153       3.3376      0.00000
    154       3.3471      0.00000
    155       3.3591      0.00000
    156       3.3690      0.00000
    157       3.3709      0.00000
    158       3.3732      0.00000
    159       3.3786      0.00000
    160       3.3794      0.00000
    161       3.3795      0.00000
    162       3.3966      0.00000
    163       3.4062      0.00000
    164       3.4232      0.00000
    165       3.4340      0.00000
    166       3.4618      0.00000
    167       3.5089      0.00000
    168       3.5293      0.00000
    169       3.5298      0.00000
    170       3.5498      0.00000
    171       3.5768      0.00000
    172       3.5853      0.00000
    173       3.6056      0.00000
    174       3.6250      0.00000
    175       3.6354      0.00000
    176       3.6401      0.00000
    177       3.6423      0.00000
    178       3.6517      0.00000
    179       3.6728      0.00000
    180       3.6809      0.00000
    181       3.6866      0.00000
    182       3.7581      0.00000
    183       3.7609      0.00000
    184       3.7618      0.00000
    185       3.7819      0.00000
    186       3.7838      0.00000
    187       3.8155      0.00000
    188       3.8512      0.00000
    189       3.8515      0.00000
    190       3.9438      0.00000
    191       3.9557      0.00000
    192       3.9574      0.00000
    193       3.9611      0.00000
    194       3.9748      0.00000
    195       3.9841      0.00000
    196       4.0097      0.00000
    197       4.0117      0.00000
    198       4.0425      0.00000
    199       4.0576      0.00000
    200       4.1226      0.00000
    201       4.1460      0.00000
    202       4.1717      0.00000
    203       4.1784      0.00000
    204       4.2004      0.00000
    205       4.2014      0.00000
    206       4.2077      0.00000
    207       4.2139      0.00000
    208       4.2164      0.00000
    209       4.2413      0.00000
    210       4.2714      0.00000
    211       4.3144      0.00000
    212       4.3359      0.00000
    213       4.3380      0.00000
    214       4.3388      0.00000
    215       4.3471      0.00000
    216       4.3508      0.00000
    217       4.3533      0.00000
    218       4.3554      0.00000
    219       4.3608      0.00000
    220       4.3687      0.00000
    221       4.3742      0.00000
    222       4.4219      0.00000
    223       4.4250      0.00000
    224       4.4413      0.00000
    225       4.4453      0.00000
    226       4.4631      0.00000
    227       4.4633      0.00000
    228       4.4674      0.00000
    229       4.4704      0.00000
    230       4.4712      0.00000
    231       4.4933      0.00000
    232       4.4965      0.00000
    233       4.5041      0.00000
    234       4.5175      0.00000
    235       4.5220      0.00000
    236       4.5403      0.00000
    237       4.5440      0.00000
    238       4.5503      0.00000
    239       4.5533      0.00000
    240       4.5556      0.00000
    241       4.5563      0.00000
    242       4.5674      0.00000
    243       4.5719      0.00000
    244       4.5811      0.00000
    245       4.5900      0.00000
    246       4.6176      0.00000
    247       4.6246      0.00000
    248       4.6296      0.00000
    249       4.6330      0.00000
    250       4.6628      0.00000
    251       4.6664      0.00000
    252       4.6706      0.00000
    253       4.6747      0.00000
    254       4.6764      0.00000
    255       4.6783      0.00000
    256       4.6784      0.00000
    257       4.6813      0.00000
    258       4.6867      0.00000
    259       4.7012      0.00000
    260       4.7014      0.00000
    261       4.7105      0.00000
    262       4.7106      0.00000
    263       4.7589      0.00000
    264       4.8806      0.00000
    265       4.8853      0.00000
    266       4.9983      0.00000
    267       5.0034      0.00000
    268       5.0234      0.00000
    269       5.0648      0.00000
    270       5.0736      0.00000
    271       5.1553      0.00000
    272       5.1707      0.00000
    273       5.2259      0.00000
    274       5.2315      0.00000
    275       5.2685      0.00000
    276       5.2737      0.00000
    277       5.2752      0.00000
    278       5.2759      0.00000
    279       5.2861      0.00000
    280       5.2963      0.00000
    281       5.3065      0.00000
    282       5.3296      0.00000
    283       5.3499      0.00000
    284       5.4345      0.00000
    285       5.4384      0.00000
    286       5.4500      0.00000
    287       5.4810      0.00000
    288       5.4838      0.00000
    289       5.5052      0.00000
    290       5.5085      0.00000
    291       5.5107      0.00000
    292       5.5176      0.00000
    293       5.5187      0.00000
    294       5.5187      0.00000
    295       5.5296      0.00000
    296       5.5307      0.00000
    297       5.5466      0.00000
    298       5.5481      0.00000
    299       5.5483      0.00000
    300       5.5575      0.00000
    301       5.5667      0.00000
    302       5.5716      0.00000
    303       5.5770      0.00000
    304       5.5778      0.00000
    305       5.5813      0.00000
    306       5.5958      0.00000
    307       5.5970      0.00000
    308       5.6054      0.00000
    309       5.6075      0.00000
    310       5.6212      0.00000
    311       5.6227      0.00000
    312       5.6529      0.00000
    313       5.6595      0.00000
    314       5.6617      0.00000
    315       5.6621      0.00000
    316       5.6682      0.00000
    317       5.6719      0.00000
    318       5.6825      0.00000
    319       5.6861      0.00000
    320       5.7027      0.00000
    321       5.7134      0.00000
    322       5.7216      0.00000
    323       5.7236      0.00000
    324       5.7254      0.00000
    325       5.7334      0.00000
    326       5.7350      0.00000
    327       5.7354      0.00000
    328       5.7385      0.00000
    329       5.7399      0.00000
    330       5.7407      0.00000
    331       5.7474      0.00000
    332       5.8185      0.00000
    333       5.8685      0.00000
    334       5.8783      0.00000
    335       5.9164      0.00000
    336       5.9317      0.00000
    337       5.9349      0.00000
    338       5.9437      0.00000
    339       5.9588      0.00000
    340       5.9682      0.00000
    341       5.9683      0.00000
    342       5.9839      0.00000
    343       5.9847      0.00000
    344       5.9910      0.00000
    345       6.0087      0.00000
    346       6.0105      0.00000
    347       6.0134      0.00000
    348       6.0211      0.00000
    349       6.0279      0.00000
    350       6.0297      0.00000
    351       6.0320      0.00000
    352       6.0321      0.00000
    353       6.0328      0.00000
    354       6.0364      0.00000
    355       6.0373      0.00000
    356       6.0442      0.00000
    357       6.0551      0.00000
    358       6.0721      0.00000
    359       6.0727      0.00000
    360       6.0889      0.00000
    361       6.0903      0.00000
    362       6.1057      0.00000
    363       6.1105      0.00000
    364       6.1184      0.00000
    365       6.1203      0.00000
    366       6.1281      0.00000
    367       6.1284      0.00000
    368       6.1821      0.00000
    369       6.2023      0.00000
    370       6.2046      0.00000
    371       6.2068      0.00000
    372       6.2219      0.00000
    373       6.2384      0.00000
    374       6.2435      0.00000
    375       6.2495      0.00000
    376       6.2518      0.00000
    377       6.2570      0.00000
    378       6.2577      0.00000
    379       6.2881      0.00000
    380       6.3322      0.00000
    381       6.3499      0.00000
    382       6.3535      0.00000
    383       6.3579      0.00000
    384       6.4288      0.00000


--------------------------------------------------------------------------------------------------------


 soft charge-density along one line, spin component           1
         0         1         2         3         4         5         6         7         8         9
 total charge-density along one line

 pseudopotential strength for first ion, spin component:           1
 -8.892  -0.000  -0.022  -0.000  -0.000  -8.945  -0.000  -0.021
 -0.000  -8.869   0.000   0.015  -0.000  -0.000  -8.923   0.000
 -0.022   0.000  -8.866  -0.000   0.000  -0.021   0.000  -8.921
 -0.000   0.015  -0.000  -8.869  -0.000  -0.000   0.015  -0.000
 -0.000  -0.000   0.000  -0.000  -8.884  -0.000  -0.000   0.000
 -8.945  -0.000  -0.021  -0.000  -0.000  -8.971  -0.000  -0.021
 -0.000  -8.923   0.000   0.015  -0.000  -0.000  -8.949   0.000
 -0.021   0.000  -8.921  -0.000   0.000  -0.021   0.000  -8.947
 -0.000   0.015  -0.000  -8.923  -0.000  -0.000   0.014  -0.000
 -0.000  -0.000   0.000  -0.000  -8.937  -0.000  -0.000   0.000
 -0.012  -0.000  -0.007   0.000   0.000  -0.012  -0.000  -0.007
 -0.020  -0.000  -0.011   0.000   0.000  -0.019  -0.000  -0.011
  0.028  -0.000   0.016  -0.000   0.030   0.027  -0.000   0.016
 -0.000  -0.030   0.000   0.030  -0.000  -0.000  -0.029   0.000
 -0.028  -0.000  -0.016  -0.000   0.030  -0.027  -0.000  -0.016
  0.035  -0.000   0.020  -0.000   0.036   0.033  -0.000   0.019
 -0.000  -0.036   0.000   0.036  -0.000  -0.000  -0.035   0.000
 -0.035  -0.000  -0.020  -0.000   0.036  -0.033  -0.000  -0.019
 total augmentation occupancy for first ion, spin component:           1
  2.382   0.000   0.204   0.000  -0.000  -0.513   0.000  -0.287   0.000   0.000   1.061  -0.265   0.091   0.000  -0.091   0.007
  0.000   2.079   0.000  -0.050  -0.000   0.000  -0.102  -0.000   0.085   0.000   0.000   0.000   0.000  -0.007   0.000   0.000
  0.204   0.000   2.147   0.000  -0.000  -0.287   0.000  -0.182   0.000   0.000   0.612  -0.153   0.052   0.000  -0.052   0.004
  0.000  -0.050   0.000   2.079   0.000   0.000   0.085  -0.000  -0.102   0.000  -0.000   0.000   0.000   0.007   0.000   0.000
 -0.000  -0.000  -0.000   0.000   2.129   0.000   0.000   0.000   0.000  -0.187  -0.000   0.000   0.007   0.000   0.007   0.016
 -0.513   0.000  -0.287   0.000   0.000   0.636   0.000   0.362   0.000  -0.000  -0.920   0.229  -0.121   0.000   0.121   0.011
  0.000  -0.102   0.000   0.085   0.000   0.000   0.127   0.000  -0.117   0.000  -0.000   0.000   0.000   0.025   0.000   0.000
 -0.287  -0.000  -0.182  -0.000   0.000   0.362  -0.000   0.218   0.000  -0.000  -0.532   0.132  -0.070   0.000   0.070   0.006
  0.000   0.085   0.000  -0.102   0.000   0.000  -0.117   0.000   0.127   0.000   0.000   0.000  -0.000  -0.025   0.000   0.000
  0.000   0.000   0.000   0.000  -0.187  -0.000   0.000  -0.000   0.000   0.244   0.000  -0.000  -0.025   0.000  -0.025   0.002
  1.061   0.000   0.612  -0.000  -0.000  -0.920  -0.000  -0.532  -0.000   0.000   2.749  -0.617   0.223  -0.000  -0.223  -0.015
 -0.265   0.000  -0.153   0.000   0.000   0.229   0.000   0.132   0.000  -0.000  -0.617   0.140  -0.053  -0.000   0.053   0.004
  0.091   0.000   0.052   0.000   0.007  -0.121   0.000  -0.070  -0.000  -0.025   0.223  -0.053   0.028  -0.000  -0.022  -0.003
  0.000  -0.007   0.000   0.007   0.000   0.000   0.025   0.000  -0.025   0.000  -0.000  -0.000  -0.000   0.005   0.000   0.000
 -0.091   0.000  -0.052   0.000   0.007   0.121   0.000   0.070   0.000  -0.025  -0.223   0.053  -0.022   0.000   0.028   0.002
  0.007   0.000   0.004   0.000   0.016   0.011   0.000   0.006   0.000   0.002  -0.015   0.004  -0.003   0.000   0.002   0.001
 -0.000  -0.016   0.000   0.016  -0.000  -0.000  -0.002  -0.000   0.002   0.000   0.000   0.000   0.000  -0.001   0.000   0.000
 -0.007   0.000  -0.004   0.000   0.016  -0.011   0.000  -0.006   0.000   0.002   0.015  -0.004   0.002   0.000  -0.003  -0.000


------------------------ aborting loop because EDIFF is reached ----------------------------------------


    FORLOC:  cpu time      0.0008: real time      0.0008
    FORHF :  cpu time      1.3897: real time      1.3901
    FORNL :  cpu time      0.1304: real time      0.1305
    FORCOR:  cpu time      0.8988: real time      0.8988
    OFIELD:  cpu time      0.0001: real time      0.0001

 VOLUME and BASIS-vectors are now :
 -----------------------------------------------------------------------------
  energy-cutoff  :      520.00
  volume of cell :     9881.61
      direct lattice vectors                 reciprocal lattice vectors
    21.138852197  0.000000000  0.000000000     0.047306258  0.000000000  0.000000000
     0.000000000 21.138852197  0.000000000     0.000000000  0.047306258  0.000000000
     0.000000000  0.000000000 22.113885220     0.000000000  0.000000000  0.045220457

  length of vectors
    21.138852197 21.138852197 22.113885220     0.047306258  0.047306258  0.045220457


 FORCES acting on ions:
    Electron-Ion                     Ewald-Force                    Non-Local-Force
 -----------------------------------------------------------------------------------------------
   -.190E+03 0.190E+03 0.543E-04   0.185E+03 -.185E+03 -.900E-17   0.524E+01 -.524E+01 0.210E-19
   0.190E+03 -.190E+03 0.543E-04   -.185E+03 0.185E+03 -.407E-16   -.524E+01 0.524E+01 0.201E-19
 -----------------------------------------------------------------------------------------------
   0.432E-04 -.206E-03 0.107E-03   0.000E+00 0.000E+00 -.497E-16   0.000E+00 -.888E-15 0.411E-19


 POSITION                                       TOTAL-FORCE (eV/Angst)
 -----------------------------------------------------------------------------------
     10.42106      8.60391     14.09831         0.103633     -0.103633      0.000000
      8.60390     10.42106     14.09831        -0.103633      0.103633     -0.000000
 -----------------------------------------------------------------------------------
    total drift:                                0.000043     -0.000206      0.000107


--------------------------------------------------------------------------------------------------------



  FREE ENERGIE OF THE ION-ELECTRON SYSTEM (eV)
  ---------------------------------------------------
  free  energy   TOTEN  =        -2.57325014 eV

  energy  without entropy=       -2.57325014  energy(sigma->0) =       -2.57325014



--------------------------------------------------------------------------------------------------------


    POTLOK:  cpu time      1.0081: real time      1.0081


--------------------------------------------------------------------------------------------------------


     LOOP+:  cpu time   1574.5993: real time   1575.7503
    4ORBIT:  cpu time      0.0000: real time      0.0000

 total amount of memory used by VASP MPI-rank0  1211235. kBytes
=======================================================================

   base      :      30000. kBytes
   nonlr-proj:       1201. kBytes
   fftplans  :      61841. kBytes
   grid      :      48291. kBytes
   one-center:         15. kBytes
   HF        :         64. kBytes
   wavefun   :       3225. kBytes
   fock_wrk  :    1066598. kBytes

  
  
 General timing and accounting informations for this job:
 ========================================================
  
                  Total CPU time used (sec):     1690.504
                            User time (sec):     1661.945
                          System time (sec):       28.559
                         Elapsed time (sec):     1743.372
  
                   Maximum memory used (kb):     2595112.
                   Average memory used (kb):          N/A
  
                          Minor page faults:      2804584
                          Major page faults:           49
                 Voluntary context switches:        59816
