 vasp.6.4.1 05Apr23 (build May 06 2023 19:47:20) complex                        
  
 executed on             LinuxIFC date 2023.05.12  13:02:58
 running  768 mpi-ranks, with    1 threads/rank, on   48 nodes
 distrk:  each k-point on  768 cores,    1 groups
 distr:  one band on NCORE=  16 cores,   48 groups


--------------------------------------------------------------------------------------------------------


 INCAR:
   SYSTEM = MgO-rocksalt
   ISMEAR = 0
   SIGMA = 0.05
   EDIFF = 1E-4
   ALGO = ALL
   ISTART = 0
   IBRION = -1
   NSW = 0
   ISYM = 3
   DIPOL = 0.5 0.5 0.5
   IDIPOL = 3
   LDIPOL = .TRUE.
   LHFCALC = .TRUE.
   HFSCREEN = 0.2
   GGA = PE
   IVDW = 13
   VDW_S8 = 1.19528249
   VDW_A1 = 0.38663183
   VDW_A2 = 5.19133469
   ENCUT = 520
   PREC = Normal
   LASPH = .TRUE.
   LREAL = Auto
   ISPIN = 1
   NELM = 200
   NELMIN = 8
   NCORE = 16
   KPAR = 1
   LWAVE = .FALSE.
   LCHARG = .FALSE.

 POTCAR:    PAW_PBE Au 04Oct2007                  
 POTCAR:    PAW_PBE Mg_pv 13Apr2007               
 POTCAR:    PAW_PBE O 08Apr2002                   
 POTCAR:    PAW_PBE Au 04Oct2007                  
   SHA256 =  d0044ae04e2bdce24051b198fc5c053d722a5bc6fe3c3b100514a13fc5d2db88 Au/POTCAR             
   COPYR  = (c) Copyright 04Oct2007 Georg Kresse                                                    
   COPYR  = This file is part of the software VASP. Any use, copying, and all other rights are regul
   COPYR  = If you do not have a valid VASP license, you may not use, copy or distribute this file. 
   VRHFIN =Au: s1d10                                                                                
   LEXCH  = PE                                                                                      
   EATOM  =   926.0867 eV,   68.0654 Ry                                                             
                                                                                                    
   TITEL  = PAW_PBE Au 04Oct2007                                                                    
   LULTRA =        F    use ultrasoft PP ?                                                          
   IUNSCR =        1    unscreen: 0-lin 1-nonlin 2-no                                               
   RPACOR =    2.330    partial core radius                                                         
   POMASS =  196.966; ZVAL   =   11.000    mass and valenz                                          
   RCORE  =    2.500    outmost cutoff radius                                                       
   RWIGS  =    2.840; RWIGS  =    1.503    wigner-seitz radius (au A)                               
   ENMAX  =  229.943; ENMIN  =  172.457 eV                                                          
   ICORE  =        3    local potential                                                             
   LCOR   =        T    correct aug charges                                                         
   LPAW   =        T    paw PP                                                                      
   EAUG   =  356.670                                                                                
   DEXC   =    0.000                                                                                
   RMAX   =    2.562    core radius for proj-oper                                                   
   RAUG   =    1.300    factor for augmentation sphere                                              
   RDEP   =    2.598    radius for radial grids                                                     
   RDEPT  =    2.193    core radius for aug-charge                                                  
                                                                                                    
   Atomic configuration                                                                             
   16 entries                                                                                       
     n  l   j            E        occ.                                                              
     1  0  0.50    -80748.5001   2.0000                                                             
     2  0  0.50    -14244.7466   2.0000                                                             
     2  1  1.50    -12310.9591   6.0000                                                             
     3  0  0.50     -3362.1768   2.0000                                                             
     3  1  1.50     -2801.5463   6.0000                                                             
     3  2  2.50     -2203.8206  10.0000                                                             
     4  0  0.50      -729.8168   2.0000                                                             
     4  1  1.50      -546.0527   6.0000                                                             
     4  2  2.50      -325.7302  10.0000                                                             
     4  3  3.50       -81.1472  14.0000                                                             
     5  0  0.50      -108.3201   2.0000                                                             
     5  1  1.50       -59.7479   6.0000                                                             
     5  2  2.50        -6.8783  10.0000                                                             
     6  0  0.50        -5.7602   1.0000                                                             
     6  1  1.50        -6.8029   0.0000                                                             
     5  3  2.50        -1.3606   0.0000                                                             
   Description                                                                                      
     l       E           TYP  RCUT    TYP  RCUT                                                     
     2     -6.8782861     23  2.500                                                                 
     2     -8.2388687     23  2.500                                                                 
     0     -5.7601759     23  2.500                                                                 
     0     -0.8493231     23  2.500                                                                 
     1     -2.7211652     23  2.500                                                                 
     1     27.2116520     23  2.500                                                                 
     3     -1.3605826     23  2.500                                                                 
  local pseudopotential read in
  partial core-charges read in
  partial kinetic energy density read in
  atomic valenz-charges read in
  non local Contribution for L=           2  read in
    real space projection operators read in
  non local Contribution for L=           2  read in
    real space projection operators read in
  non local Contribution for L=           0  read in
    real space projection operators read in
  non local Contribution for L=           0  read in
    real space projection operators read in
  non local Contribution for L=           1  read in
    real space projection operators read in
  non local Contribution for L=           1  read in
    real space projection operators read in
    PAW grid and wavefunctions read in
 
   number of l-projection  operators is LMAX  =           6
   number of lm-projection operators is LMMAX =          18
 
 POTCAR:    PAW_PBE Mg_pv 13Apr2007               
   SHA256 =  f474ac0dd33840b9ae76c01d57fea79fdf77cdfbb07d5ade72c65f83c709b62b Mg_pv/POTCAR          
   COPYR  = (c) Copyright 13Apr2007 Georg Kresse                                                    
   COPYR  = This file is part of the software VASP. Any use, copying, and all other rights are regul
   COPYR  = If you do not have a valid VASP license, you may not use, copy or distribute this file. 
   VRHFIN =Mg: p6s2                                                                                 
   LEXCH  = PE                                                                                      
   EATOM  =  1056.7344 eV,   77.6678 Ry                                                             
                                                                                                    
   TITEL  = PAW_PBE Mg_pv 13Apr2007                                                                 
   LULTRA =        F    use ultrasoft PP ?                                                          
   IUNSCR =        1    unscreen: 0-lin 1-nonlin 2-no                                               
   RPACOR =    1.500    partial core radius                                                         
   POMASS =   24.305; ZVAL   =    8.000    mass and valenz                                          
   RCORE  =    2.000    outmost cutoff radius                                                       
   RWIGS  =    2.000; RWIGS  =    1.058    wigner-seitz radius (au A)                               
   ENMAX  =  403.929; ENMIN  =  302.947 eV                                                          
   RCLOC  =    1.506    cutoff for local pot                                                        
   LCOR   =        T    correct aug charges                                                         
   LPAW   =        T    paw PP                                                                      
   EAUG   =  758.780                                                                                
   DEXC   =    0.000                                                                                
   RMAX   =    2.045    core radius for proj-oper                                                   
   RAUG   =    1.300    factor for augmentation sphere                                              
   RDEP   =    2.025    radius for radial grids                                                     
   RDEPT  =    1.557    core radius for aug-charge                                                  
                                                                                                    
   Atomic configuration                                                                             
    5 entries                                                                                       
     n  l   j            E        occ.                                                              
     1  0  0.50     -1259.6230   2.0000                                                             
     2  0  0.50       -79.8442   2.0000                                                             
     2  1  1.50       -46.6121   6.0000                                                             
     3  0  0.50        -4.7055   2.0000                                                             
     3  2  1.50        -1.3606   0.0000                                                             
   Description                                                                                      
     l       E           TYP  RCUT    TYP  RCUT                                                     
     1    -46.6121073     23  1.600                                                                 
     1      2.7211652     23  1.600                                                                 
     0     -4.7054661     23  2.000                                                                 
     0     61.2262170     23  2.000                                                                 
     2     -1.3605826     23  2.000                                                                 
  local pseudopotential read in
  partial core-charges read in
  partial kinetic energy density read in
  atomic valenz-charges read in
  non local Contribution for L=           1  read in
    real space projection operators read in
  non local Contribution for L=           1  read in
    real space projection operators read in
  non local Contribution for L=           0  read in
    real space projection operators read in
  non local Contribution for L=           0  read in
    real space projection operators read in
  non local Contribution for L=           2  read in
    real space projection operators read in
    PAW grid and wavefunctions read in
 
   number of l-projection  operators is LMAX  =           5
   number of lm-projection operators is LMMAX =          13
 
 POTCAR:    PAW_PBE O 08Apr2002                   
   SHA256 =  818f92134a0a090dccd8ba1447fa70422a3b330e708bb4f08108d8ae51209ddf O/POTCAR              
   COPYR  = (c) Copyright 08Apr2002 Georg Kresse                                                    
   COPYR  = This file is part of the software VASP. Any use, copying, and all other rights are regul
   COPYR  = If you do not have a valid VASP license, you may not use, copy or distribute this file. 
   VRHFIN =O: s2p4                                                                                  
   LEXCH  = PE                                                                                      
   EATOM  =   432.3788 eV,   31.7789 Ry                                                             
                                                                                                    
   TITEL  = PAW_PBE O 08Apr2002                                                                     
   LULTRA =        F    use ultrasoft PP ?                                                          
   IUNSCR =        1    unscreen: 0-lin 1-nonlin 2-no                                               
   RPACOR =    1.200    partial core radius                                                         
   POMASS =   16.000; ZVAL   =    6.000    mass and valenz                                          
   RCORE  =    1.520    outmost cutoff radius                                                       
   RWIGS  =    1.550; RWIGS  =    0.820    wigner-seitz radius (au A)                               
   ENMAX  =  400.000; ENMIN  =  300.000 eV                                                          
   ICORE  =        2    local potential                                                             
   LCOR   =        T    correct aug charges                                                         
   LPAW   =        T    paw PP                                                                      
   EAUG   =  605.392                                                                                
   DEXC   =    0.000                                                                                
   RMAX   =    1.553    core radius for proj-oper                                                   
   RAUG   =    1.300    factor for augmentation sphere                                              
   RDEP   =    1.550    radius for radial grids                                                     
   RDEPT  =    1.329    core radius for aug-charge                                                  
                                                                                                    
   Atomic configuration                                                                             
    4 entries                                                                                       
     n  l   j            E        occ.                                                              
     1  0  0.50      -514.6923   2.0000                                                             
     2  0  0.50       -23.9615   2.0000                                                             
     2  1  0.50        -9.0305   4.0000                                                             
     3  2  1.50        -9.5241   0.0000                                                             
   Description                                                                                      
     l       E           TYP  RCUT    TYP  RCUT                                                     
     0    -23.9615318     23  1.200                                                                 
     0     -9.5240782     23  1.200                                                                 
     1     -9.0304911     23  1.520                                                                 
     1      8.1634956     23  1.520                                                                 
     2     -9.5240782      7  1.500                                                                 
  local pseudopotential read in
  partial core-charges read in
  partial kinetic energy density read in
  kinetic energy density of atom read in
  atomic valenz-charges read in
  non local Contribution for L=           0  read in
    real space projection operators read in
  non local Contribution for L=           0  read in
    real space projection operators read in
  non local Contribution for L=           1  read in
    real space projection operators read in
  non local Contribution for L=           1  read in
    real space projection operators read in
    PAW grid and wavefunctions read in
 
   number of l-projection  operators is LMAX  =           4
   number of lm-projection operators is LMMAX =           8
 
 Optimization of the real space projectors (new method)

 maximal supplied QI-value         = 15.12
 optimisation between [QCUT,QGAM] = [ 11.64, 23.28] = [ 37.95,151.78] Ry 
 Optimized for a Real-space Cutoff    1.36 Angstroem

   l    n(q)    QCUT    max X(q) W(low)/X(q) W(high)/X(q)  e(spline) 
   2      9    11.641    60.898    0.44E-03    0.10E-02    0.32E-06
   2      9    11.641    58.894    0.45E-03    0.11E-02    0.32E-06
   0      9    11.641   109.617    0.19E-03    0.78E-04    0.11E-06
   0      9    11.641    75.026    0.19E-03    0.76E-04    0.10E-06
   1      9    11.641    16.344    0.43E-03    0.28E-03    0.32E-06
   1      9    11.641    10.160    0.36E-03    0.22E-03    0.26E-06
 Optimization of the real space projectors (new method)

 maximal supplied QI-value         = 18.90
 optimisation between [QCUT,QGAM] = [ 11.53, 23.24] = [ 37.21,151.29] Ry 
 Optimized for a Real-space Cutoff    1.21 Angstroem

   l    n(q)    QCUT    max X(q) W(low)/X(q) W(high)/X(q)  e(spline) 
   1      8    11.527     2.974    0.16E-03    0.13E-03    0.98E-07
   1      8    11.527     4.279    0.42E-03    0.30E-03    0.22E-06
   0      8    11.527    16.381    0.13E-03    0.20E-03    0.72E-07
   0      8    11.527     5.611    0.88E-04    0.13E-03    0.50E-07
   2      7    11.527     4.652    0.25E-03    0.73E-04    0.51E-07
 Optimization of the real space projectors (new method)

 maximal supplied QI-value         = 24.76
 optimisation between [QCUT,QGAM] = [ 11.64, 23.27] = [ 37.91,151.63] Ry 
 Optimized for a Real-space Cutoff    1.04 Angstroem

   l    n(q)    QCUT    max X(q) W(low)/X(q) W(high)/X(q)  e(spline) 
   0      7    11.635    20.381    0.14E-03    0.49E-03    0.18E-06
   0      7    11.635    15.268    0.16E-03    0.52E-03    0.19E-06
   1      7    11.635     5.964    0.30E-03    0.44E-03    0.22E-06
   1      7    11.635     5.382    0.27E-03    0.34E-03    0.19E-06
  PAW_PBE Au 04Oct2007                  :
 energy of atom  1       EATOM= -926.0867
 kinetic energy error for atom=    0.0034 (will be added to EATOM!!)
  PAW_PBE Mg_pv 13Apr2007               :
 energy of atom  2       EATOM=-1056.7344
 kinetic energy error for atom=    0.0340 (will be added to EATOM!!)
  PAW_PBE O 08Apr2002                   :
 energy of atom  3       EATOM= -432.3788
 kinetic energy error for atom=    0.0208 (will be added to EATOM!!)
 
 
 POSCAR: Mg  O
  positions in direct lattice
  velocities in cartesian coordinates
 -----------------------------------------------------------------------------
|                                                                             |
|           W    W    AA    RRRRR   N    N  II  N    N   GGGG   !!!           |
|           W    W   A  A   R    R  NN   N  II  NN   N  G    G  !!!           |
|           W    W  A    A  R    R  N N  N  II  N N  N  G       !!!           |
|           W WW W  AAAAAA  RRRRR   N  N N  II  N  N N  G  GGG   !            |
|           WW  WW  A    A  R   R   N   NN  II  N   NN  G    G                |
|           W    W  A    A  R    R  N    N  II  N    N   GGGG   !!!           |
|                                                                             |
|     Specifying the vdW parameters                                           |
|     VDW_S8 = 1.195                                                          |
|     VDW_A1 = 0.387                                                          |
|     VDW_A2 = 5.191                                                          |
|     in the INCAR file will overwrite the defaults for hse06. Please         |
|     make sure that is what you intended.                                    |
|                                                                             |
 -----------------------------------------------------------------------------

 exchange correlation table for  LEXCH =        8
   RHO(1)=    0.500       N(1)  =     2000
   RHO(2)=  100.500       N(2)  =     4000
 


--------------------------------------------------------------------------------------------------------


 ion  position               nearest neighbor table
   1  0.431  0.227  0.583- 265 2.50   2 2.73   5 2.74  11 2.75  68 2.95  67 3.01
   2  0.559  0.237  0.590-   3 2.65   1 2.73  12 2.78  11 2.83   6 2.87   5 2.95  68 3.06
   3  0.683  0.252  0.593-   2 2.65   4 2.67  12 2.79   6 2.82  13 2.87   7 2.91  88 3.01
   4  0.809  0.260  0.596-   3 2.67   7 2.72  13 2.76 107 2.99
   5  0.476  0.348  0.587-   8 2.70   1 2.74  14 2.75  11 2.81   6 2.86  72 2.89   2 2.95
   6  0.610  0.363  0.590-   3 2.82   9 2.82   8 2.86   5 2.86   2 2.87  15 2.93   7 2.93  14 2.96
                            12 2.99  87 3.02
   7  0.748  0.373  0.593-   9 2.67   4 2.72  15 2.80  13 2.87   3 2.91   6 2.93  92 3.00
   8  0.524  0.467  0.585- 270 2.69   5 2.70  10 2.76  14 2.76  16 2.84   6 2.86  72 2.98   9 3.28

   9  0.678  0.478  0.587- 290 2.66   7 2.67  10 2.73  15 2.77   6 2.82  16 2.89   8 3.28
  10  0.595  0.576  0.580- 293 2.37  16 2.68   9 2.73   8 2.76  91 2.91
  11  0.480  0.269  0.662-  17 2.70   1 2.75   5 2.81  12 2.83   2 2.83  14 2.91
  12  0.613  0.277  0.669-  17 2.75  18 2.76   2 2.78   3 2.79  11 2.83  13 2.83   6 2.99  14 3.17
                            15 3.18
  13  0.745  0.297  0.672-  18 2.67   4 2.76  15 2.82  12 2.83   7 2.87   3 2.87
  14  0.525  0.399  0.664-   5 2.75  19 2.75  17 2.76   8 2.76  16 2.86  11 2.91   6 2.96  12 3.17
                            15 3.26
  15  0.679  0.413  0.667-   9 2.77  19 2.77  18 2.78   7 2.80  16 2.81  13 2.82   6 2.93  12 3.18
                            14 3.26
  16  0.595  0.515  0.658-  10 2.68  19 2.70  15 2.81   8 2.84  14 2.86   9 2.89
  17  0.533  0.318  0.736-  11 2.70  20 2.70  12 2.75  14 2.76  18 2.98  19 3.01
  18  0.673  0.333  0.741-  20 2.67  13 2.67  12 2.76  15 2.78  19 2.91  17 2.98
  19  0.595  0.446  0.734-  16 2.70  20 2.72  14 2.75  15 2.77  18 2.91  17 3.01
  20  0.595  0.368  0.806-  18 2.67  17 2.70  19 2.72
  21  0.000  1.000  0.430- 304 2.11 223 2.11 239 2.11 224 2.11 321 2.12 221 2.13
  22  0.100  0.100  0.430- 223 2.11 224 2.11 228 2.11 243 2.12 322 2.12 222 2.13
  23  0.000  0.100  0.500- 223 2.11 302 2.11 222 2.11 221 2.11 225 2.12
  24  0.100  1.000  0.500- 224 2.10 221 2.11 238 2.11 241 2.11 222 2.11
  25  1.000  0.200  0.430- 308 2.11 223 2.11 228 2.11 227 2.11 325 2.12 225 2.13
  26  0.100  0.300  0.430- 227 2.11 232 2.11 228 2.11 247 2.12 326 2.12 226 2.13
  27  0.000  0.300  0.500- 227 2.11 226 2.11 306 2.11 225 2.12 229 2.12
  28  0.100  0.200  0.500- 228 2.11 225 2.11 245 2.11 222 2.11 226 2.12
  29  1.000  0.400  0.430- 312 2.11 232 2.11 227 2.11 231 2.12 329 2.12 229 2.13
  30  0.100  0.500  0.430- 231 2.11 251 2.11 236 2.11 232 2.11 330 2.12 230 2.13
  31  0.000  0.500  0.500- 231 2.11 230 2.11 310 2.11 233 2.12 229 2.12
  32  0.100  0.400  0.500- 232 2.11 229 2.11 249 2.11 230 2.12 226 2.12
  33  0.000  0.600  0.430- 236 2.11 235 2.11 231 2.11 316 2.11 333 2.12 233 2.13
  34  0.100  0.700  0.430- 235 2.11 240 2.11 255 2.11 236 2.11 334 2.12 234 2.13
  35  0.000  0.700  0.500- 235 2.11 234 2.11 237 2.11 314 2.11 233 2.11
  36  0.100  0.600  0.500- 236 2.11 233 2.11 253 2.11 234 2.11 230 2.11
  37  0.000  0.800  0.430- 239 2.11 240 2.11 235 2.11 320 2.11 337 2.12 237 2.13
  38  0.100  0.900  0.430- 239 2.11 240 2.11 224 2.11 259 2.11 338 2.12 238 2.13
  39  0.000  0.900  0.500- 239 2.10 221 2.11 238 2.11 237 2.11 318 2.11
  40  0.100  0.800  0.500- 240 2.10 237 2.11 238 2.11 257 2.11 234 2.11
  41  0.200  1.000  0.430- 224 2.11 259 2.11 243 2.12 244 2.12 341 2.12 241 2.13
  42  0.300  0.100  0.430- 243 2.11 244 2.11 263 2.11 248 2.11 342 2.13 242 2.13
  43  0.200  0.100  0.500- 243 2.11 222 2.11 241 2.11 245 2.12 242 2.12
  44  0.300  1.000  0.500- 244 2.11 241 2.11 258 2.11 261 2.12 242 2.12
  45  0.200  0.200  0.430- 228 2.11 243 2.11 247 2.11 345 2.12 248 2.13 245 2.14
  46  0.300  0.300  0.430- 267 2.11 247 2.11 252 2.11 248 2.12 346 2.12 246 2.13
  47  0.200  0.300  0.500- 226 2.11 247 2.11 249 2.11 246 2.12 245 2.12
  48  0.298  0.200  0.500- 245 2.09 248 2.11 246 2.11 242 2.11 265 2.13
  49  0.200  0.400  0.430- 232 2.11 252 2.11 251 2.11 247 2.12 349 2.12 249 2.13
  50  0.300  0.500  0.430- 251 2.11 256 2.11 252 2.11 271 2.12 350 2.12 250 2.13
  51  0.200  0.500  0.500- 251 2.11 230 2.11 250 2.11 253 2.11 249 2.12
  52  0.299  0.400  0.500- 249 2.10 252 2.11 269 2.11 250 2.11 246 2.12
  53  0.200  0.600  0.430- 236 2.11 255 2.11 251 2.11 256 2.11 353 2.12 253 2.13
  54  0.300  0.700  0.430- 255 2.11 260 2.11 256 2.11 275 2.12 354 2.12 254 2.13
  55  0.200  0.700  0.500- 255 2.11 234 2.11 257 2.11 253 2.11 254 2.11
  56  0.299  0.600  0.500- 253 2.11 256 2.11 254 2.11 273 2.11 250 2.12
  57  0.200  0.800  0.430- 240 2.11 255 2.11 259 2.11 260 2.12 357 2.12 257 2.13
  58  0.300  0.900  0.430- 259 2.11 260 2.11 279 2.11 244 2.12 358 2.12 258 2.13
  59  0.200  0.900  0.500- 259 2.10 238 2.11 257 2.11 241 2.11 258 2.11
  60  0.300  0.800  0.500- 260 2.10 257 2.11 258 2.11 254 2.11 277 2.12
  61  0.400  1.000  0.430- 264 2.11 244 2.11 279 2.11 361 2.12 263 2.13 261 2.13
  62  0.500  0.100  0.430- 268 2.11 264 2.11 283 2.11 263 2.12 362 2.12 262 2.12
  63  0.400  0.098  0.500- 261 2.09 263 2.11 262 2.11 242 2.11 265 2.14
  64  0.500  1.000  0.500- 264 2.11 278 2.11 262 2.11 281 2.11 261 2.12
  65  0.400  0.200  0.429- 268 2.10 267 2.10 248 2.10 263 2.10 365 2.11
  66  0.500  0.300  0.429- 266 2.07 366 2.10 287 2.11 268 2.12 267 2.12 272 2.13
  67  0.399  0.302  0.500- 269 2.09 246 2.11 267 2.12 266 2.12 265 2.16   1 3.01
  68  0.501  0.199  0.500- 285 2.09 262 2.11 268 2.11 266 2.13 265 2.16   1 2.95   2 3.06
  69  0.400  0.400  0.430- 269 2.11 252 2.11 369 2.11 272 2.11 271 2.12 267 2.13
  70  0.500  0.500  0.429- 272 2.10 271 2.11 370 2.11 276 2.12 291 2.12 270 2.14
  71  0.399  0.500  0.500- 250 2.10 269 2.10 271 2.11 273 2.12 270 2.13
  72  0.500  0.399  0.500- 266 2.11 272 2.11 269 2.13 289 2.13 270 2.15   5 2.89   8 2.98
  73  0.400  0.600  0.430- 256 2.11 271 2.11 275 2.11 373 2.12 276 2.13 273 2.13
  74  0.500  0.700  0.430- 280 2.11 275 2.11 295 2.12 276 2.12 374 2.12 274 2.13
  75  0.399  0.701  0.500- 254 2.10 277 2.11 275 2.11 273 2.12 274 2.12
  76  0.498  0.601  0.500- 273 2.08 274 2.10 276 2.10 270 2.12 293 2.16
  77  0.400  0.800  0.430- 279 2.11 260 2.11 275 2.12 280 2.12 377 2.12 277 2.13
  78  0.500  0.900  0.430- 264 2.11 279 2.11 299 2.11 280 2.12 378 2.12 278 2.13
  79  0.400  0.900  0.500- 279 2.11 261 2.11 277 2.11 258 2.11 278 2.12
  80  0.500  0.801  0.500- 278 2.10 280 2.11 277 2.11 274 2.12 297 2.12
  81  0.600  1.000  0.430- 283 2.11 299 2.11 284 2.11 381 2.12 264 2.12 281 2.13
  82  0.700  0.100  0.430- 288 2.11 303 2.12 284 2.12 283 2.12 382 2.12 282 2.13
  83  0.600  0.099  0.500- 281 2.10 285 2.11 282 2.11 283 2.11 262 2.13
  84  0.700  1.000  0.500- 282 2.10 284 2.11 298 2.11 301 2.11 281 2.12
  85  0.600  0.200  0.429- 285 2.10 385 2.11 287 2.11 283 2.11 288 2.12 268 2.14
  86  0.700  0.300  0.429- 286 2.08 386 2.11 288 2.12 307 2.12 287 2.12 292 2.13
  87  0.600  0.299  0.500- 286 2.11 285 2.12 289 2.13 287 2.13 266 2.13   6 3.02
  88  0.700  0.199  0.500- 282 2.11 286 2.12 285 2.12 305 2.12 288 2.13   3 3.01
  89  0.600  0.399  0.429- 289 2.08 389 2.10 287 2.11 292 2.11 272 2.12 291 2.15
  90  0.700  0.500  0.430- 292 2.10 311 2.11 390 2.11 296 2.12 291 2.12 290 2.14
  91  0.600  0.498  0.500- 289 2.08 291 2.09 290 2.12 270 2.12 293 2.20  10 2.91
  92  0.700  0.399  0.501- 286 2.10 289 2.12 309 2.12 292 2.13 290 2.16   7 3.00
  93  0.600  0.600  0.429- 291 2.10 295 2.10 296 2.10 393 2.11 276 2.11 293 2.21
  94  0.700  0.700  0.430- 300 2.11 315 2.11 295 2.12 296 2.12 394 2.12 294 2.14
  95  0.600  0.702  0.500- 297 2.08 295 2.10 294 2.12 274 2.12 293 2.12
  96  0.702  0.601  0.500- 313 2.08 294 2.10 296 2.11 290 2.12 293 2.16
  97  0.600  0.800  0.430- 299 2.11 300 2.11 280 2.11 397 2.12 295 2.13 297 2.13
  98  0.700  0.900  0.430- 284 2.11 319 2.11 300 2.12 299 2.12 398 2.12 298 2.13
  99  0.600  0.900  0.500- 281 2.10 299 2.11 297 2.11 298 2.12 278 2.12
 100  0.700  0.801  0.500- 298 2.10 300 2.11 317 2.11 294 2.12 297 2.12
 101  0.800  1.000  0.430- 303 2.11 304 2.11 284 2.11 319 2.12 401 2.12 301 2.13
 102  0.900  0.100  0.430- 303 2.11 308 2.11 223 2.11 304 2.11 402 2.12 302 2.13
 103  0.800  0.099  0.500- 301 2.11 303 2.11 305 2.11 302 2.11 282 2.12
 104  0.900  1.000  0.500- 304 2.11 302 2.11 221 2.11 318 2.11 301 2.11
 105  0.800  0.200  0.430- 288 2.11 307 2.11 308 2.11 303 2.12 405 2.12 305 2.14
 106  0.900  0.300  0.430- 307 2.11 308 2.11 227 2.12 312 2.12 406 2.12 306 2.14
 107  0.800  0.300  0.501- 286 2.11 306 2.12 305 2.12 309 2.13 307 2.14   4 2.99
 108  0.901  0.200  0.500- 225 2.11 308 2.11 305 2.11 302 2.11 306 2.12
 109  0.800  0.400  0.430- 292 2.11 307 2.11 312 2.11 409 2.12 311 2.12 309 2.13
 110  0.900  0.500  0.430- 231 2.11 312 2.11 316 2.12 311 2.12 410 2.12 310 2.13
 111  0.801  0.500  0.500- 310 2.10 309 2.11 311 2.12 313 2.12 290 2.13
 112  0.901  0.400  0.500- 229 2.11 312 2.11 309 2.11 306 2.11 310 2.12
 113  0.800  0.600  0.430- 316 2.11 311 2.11 315 2.11 413 2.12 296 2.13 313 2.13
 114  0.900  0.700  0.430- 235 2.11 320 2.11 316 2.11 315 2.12 414 2.12 314 2.13
 115  0.801  0.701  0.500- 317 2.10 314 2.10 315 2.11 313 2.12 294 2.13
 116  0.900  0.600  0.500- 233 2.11 316 2.11 314 2.11 313 2.12 310 2.12
 117  0.800  0.800  0.430- 319 2.11 320 2.11 315 2.12 300 2.12 417 2.12 317 2.13
 118  0.900  0.900  0.430- 304 2.11 239 2.11 319 2.11 320 2.11 418 2.12 318 2.13
 119  0.800  0.900  0.500- 319 2.11 301 2.11 318 2.11 317 2.11 298 2.12
 120  0.900  0.800  0.500- 320 2.10 318 2.11 237 2.11 314 2.11 317 2.12
 121  0.000  0.000  0.289- 323 2.11 324 2.11 339 2.11 404 2.11 321 2.11
 122  0.100  0.100  0.289- 323 2.11 324 2.11 328 2.11 343 2.11 322 2.11
 123  0.000  0.100  0.359- 223 2.11 321 2.11 322 2.11 325 2.11 402 2.11 323 2.11
 124  0.100  0.000  0.359- 224 2.11 321 2.11 322 2.11 338 2.11 341 2.11 324 2.11
 125  0.000  0.200  0.289- 327 2.11 323 2.11 328 2.11 408 2.11 325 2.11
 126  0.100  0.300  0.289- 328 2.11 327 2.11 332 2.11 347 2.11 326 2.11
 127  0.000  0.300  0.359- 325 2.11 326 2.11 329 2.11 406 2.11 327 2.11 227 2.11
 128  0.100  0.200  0.359- 228 2.11 326 2.11 325 2.11 322 2.11 345 2.11 328 2.11
 129  0.000  0.400  0.289- 327 2.11 331 2.11 332 2.11 412 2.11 329 2.11
 130  0.100  0.500  0.289- 331 2.11 332 2.11 336 2.11 351 2.11 330 2.11
 131  0.000  0.500  0.359- 231 2.11 329 2.11 330 2.11 333 2.11 410 2.11 331 2.11
 132  0.100  0.400  0.359- 232 2.11 326 2.11 329 2.11 330 2.11 349 2.11 332 2.11
 133  0.000  0.600  0.289- 331 2.11 335 2.11 336 2.11 416 2.11 333 2.11
 134  0.100  0.700  0.289- 340 2.11 336 2.11 335 2.11 355 2.11 334 2.11
 135  0.000  0.700  0.359- 235 2.11 337 2.11 334 2.11 333 2.11 414 2.11 335 2.11
 136  0.100  0.600  0.359- 236 2.11 330 2.11 333 2.11 334 2.11 353 2.11 336 2.11
 137  0.000  0.800  0.289- 335 2.11 339 2.11 340 2.11 420 2.11 337 2.11
 138  0.100  0.900  0.289- 324 2.11 339 2.11 340 2.11 359 2.11 338 2.11
 139  0.000  0.900  0.359- 239 2.11 321 2.11 337 2.11 338 2.11 418 2.11 339 2.11
 140  0.100  0.800  0.359- 240 2.11 334 2.11 337 2.11 338 2.11 357 2.11 340 2.11
 141  0.200  0.000  0.289- 344 2.11 343 2.11 324 2.11 359 2.11 341 2.11
 142  0.300  0.100  0.289- 343 2.11 344 2.11 348 2.11 363 2.11 342 2.11
 143  0.200  0.100  0.359- 342 2.11 341 2.11 322 2.11 345 2.11 343 2.11 243 2.11
 144  0.300  0.000  0.359- 341 2.11 342 2.11 358 2.11 361 2.11 344 2.11 244 2.11
 145  0.200  0.200  0.289- 347 2.11 348 2.11 328 2.11 343 2.11 345 2.11
 146  0.300  0.300  0.289- 347 2.11 348 2.11 352 2.11 367 2.11 346 2.11
 147  0.200  0.300  0.359- 345 2.11 346 2.11 326 2.11 349 2.11 347 2.11 247 2.11
 148  0.300  0.200  0.359- 345 2.11 346 2.11 342 2.11 365 2.11 348 2.11 248 2.13
 149  0.200  0.400  0.289- 352 2.11 347 2.11 351 2.11 332 2.11 349 2.11
 150  0.300  0.500  0.289- 351 2.11 352 2.11 356 2.11 371 2.11 350 2.11
 151  0.200  0.500  0.359- 251 2.11 350 2.11 349 2.11 330 2.11 353 2.11 351 2.11
 152  0.300  0.400  0.359- 252 2.11 349 2.11 346 2.11 350 2.11 369 2.11 352 2.11
 153  0.200  0.600  0.289- 356 2.11 351 2.11 355 2.11 336 2.11 353 2.11
 154  0.300  0.700  0.289- 355 2.11 360 2.11 356 2.11 375 2.11 354 2.11
 155  0.200  0.700  0.359- 255 2.11 354 2.11 357 2.11 334 2.11 353 2.11 355 2.11
 156  0.300  0.600  0.359- 256 2.11 353 2.11 350 2.11 354 2.11 373 2.11 356 2.11
 157  0.200  0.800  0.289- 355 2.11 360 2.11 359 2.11 340 2.11 357 2.11
 158  0.300  0.900  0.289- 359 2.11 344 2.11 360 2.11 379 2.11 358 2.11
 159  0.200  0.900  0.359- 259 2.11 358 2.11 341 2.11 357 2.11 338 2.11 359 2.11
 160  0.300  0.800  0.359- 260 2.11 354 2.11 357 2.11 358 2.11 377 2.11 360 2.11
 161  0.400  0.000  0.289- 344 2.11 363 2.11 364 2.11 379 2.11 361 2.11
 162  0.500  0.100  0.289- 363 2.11 364 2.11 368 2.11 383 2.11 362 2.11
 163  0.400  0.100  0.359- 342 2.11 361 2.11 362 2.11 365 2.11 363 2.11 263 2.13
 164  0.500  0.000  0.359- 264 2.11 361 2.11 362 2.11 378 2.11 381 2.11 364 2.11
 165  0.400  0.200  0.289- 367 2.11 363 2.11 348 2.11 368 2.11 365 2.11
 166  0.500  0.300  0.289- 368 2.11 367 2.11 372 2.11 387 2.11 366 2.11
 167  0.400  0.300  0.359- 365 2.11 346 2.11 366 2.11 369 2.11 367 2.11 267 2.12
 168  0.500  0.200  0.359- 366 2.11 365 2.11 362 2.11 385 2.11 368 2.11 268 2.12
 169  0.400  0.400  0.289- 352 2.11 367 2.11 371 2.11 372 2.11 369 2.11
 170  0.500  0.500  0.289- 371 2.11 372 2.11 376 2.11 391 2.11 370 2.11
 171  0.400  0.500  0.359- 350 2.11 369 2.11 370 2.11 373 2.11 371 2.11 271 2.11
 172  0.500  0.400  0.359- 272 2.10 366 2.11 369 2.11 370 2.11 389 2.11 372 2.11
 173  0.400  0.600  0.289- 356 2.11 371 2.11 375 2.11 376 2.11 373 2.11
 174  0.500  0.700  0.289- 380 2.11 376 2.11 375 2.11 395 2.11 374 2.11
 175  0.400  0.700  0.359- 377 2.11 373 2.11 374 2.11 354 2.11 375 2.11 275 2.11
 176  0.500  0.600  0.359- 370 2.11 373 2.11 374 2.11 393 2.11 376 2.11 276 2.13
 177  0.400  0.800  0.289- 375 2.11 360 2.11 379 2.11 380 2.11 377 2.11
 178  0.500  0.900  0.289- 364 2.11 379 2.11 380 2.11 399 2.11 378 2.11
 179  0.400  0.900  0.359- 279 2.11 358 2.11 361 2.11 377 2.11 378 2.11 379 2.11
 180  0.500  0.800  0.359- 280 2.11 374 2.11 377 2.11 378 2.11 397 2.11 380 2.11
 181  0.600  0.000  0.289- 364 2.11 383 2.11 384 2.11 399 2.11 381 2.11
 182  0.700  0.100  0.289- 403 2.11 384 2.11 388 2.11 383 2.11 382 2.11
 183  0.600  0.100  0.359- 283 2.11 362 2.11 381 2.11 382 2.11 385 2.11 383 2.11
 184  0.700  0.000  0.359- 284 2.11 401 2.11 382 2.11 398 2.11 381 2.11 384 2.11
 185  0.600  0.200  0.289- 387 2.11 383 2.11 368 2.11 388 2.11 385 2.11
 186  0.700  0.300  0.289- 388 2.11 407 2.11 392 2.11 387 2.11 386 2.11
 187  0.600  0.300  0.359- 287 2.10 385 2.11 366 2.11 386 2.11 389 2.11 387 2.11
 188  0.700  0.200  0.359- 288 2.11 386 2.11 405 2.11 382 2.11 385 2.11 388 2.11
 189  0.600  0.400  0.289- 372 2.11 387 2.11 391 2.11 392 2.11 389 2.11
 190  0.700  0.500  0.289- 411 2.11 392 2.11 396 2.11 391 2.11 390 2.11
 191  0.600  0.500  0.359- 370 2.11 389 2.11 390 2.11 393 2.11 391 2.11 291 2.13
 192  0.700  0.400  0.359- 292 2.11 409 2.11 389 2.11 390 2.11 386 2.11 392 2.11
 193  0.600  0.600  0.289- 376 2.11 391 2.11 395 2.11 396 2.11 393 2.11
 194  0.700  0.700  0.289- 400 2.11 415 2.11 395 2.11 396 2.11 394 2.11
 195  0.600  0.700  0.359- 397 2.11 393 2.11 394 2.11 374 2.11 395 2.11 295 2.12
 196  0.700  0.600  0.359- 413 2.11 393 2.11 394 2.11 390 2.11 396 2.11 296 2.13
 197  0.600  0.800  0.289- 395 2.11 380 2.11 399 2.11 400 2.11 397 2.11
 198  0.700  0.900  0.289- 419 2.11 399 2.11 400 2.11 384 2.11 398 2.11
 199  0.600  0.900  0.359- 299 2.11 378 2.11 381 2.11 397 2.11 398 2.11 399 2.11
 200  0.700  0.800  0.359- 394 2.11 417 2.11 398 2.11 397 2.11 400 2.11 300 2.11
 201  0.800  0.000  0.289- 384 2.11 403 2.11 404 2.11 419 2.11 401 2.11
 202  0.900  0.100  0.289- 323 2.11 403 2.11 404 2.11 408 2.11 402 2.11
 203  0.800  0.100  0.359- 382 2.11 401 2.11 402 2.11 405 2.11 403 2.11 303 2.12
 204  0.900  0.000  0.359- 304 2.11 321 2.11 401 2.11 402 2.11 418 2.11 404 2.11
 205  0.800  0.200  0.289- 388 2.11 407 2.11 403 2.11 408 2.11 405 2.11
 206  0.900  0.300  0.289- 408 2.11 407 2.11 327 2.11 412 2.11 406 2.11
 207  0.800  0.300  0.359- 386 2.11 405 2.11 406 2.11 409 2.11 407 2.11 307 2.12
 208  0.900  0.200  0.359- 406 2.11 402 2.11 405 2.11 325 2.11 408 2.11 308 2.12
 209  0.800  0.400  0.289- 392 2.11 407 2.11 411 2.11 412 2.11 409 2.11
 210  0.900  0.500  0.289- 331 2.11 411 2.11 412 2.11 416 2.11 410 2.11
 211  0.800  0.500  0.359- 390 2.11 409 2.11 410 2.11 413 2.11 411 2.11 311 2.12
 212  0.900  0.400  0.359- 329 2.11 406 2.11 409 2.11 410 2.11 412 2.11 312 2.12
 213  0.800  0.600  0.289- 396 2.11 411 2.11 415 2.11 416 2.11 413 2.11
 214  0.900  0.700  0.289- 420 2.11 415 2.11 416 2.11 335 2.11 414 2.11
 215  0.800  0.700  0.359- 394 2.11 417 2.11 414 2.11 413 2.11 415 2.11 315 2.12
 216  0.900  0.600  0.359- 333 2.11 410 2.11 413 2.11 414 2.11 416 2.11 316 2.11
 217  0.800  0.800  0.289- 400 2.11 415 2.11 419 2.11 420 2.11 417 2.11
 218  0.900  0.900  0.289- 339 2.11 404 2.11 419 2.11 420 2.11 418 2.11
 219  0.800  0.900  0.359- 319 2.11 398 2.11 401 2.11 417 2.11 418 2.11 419 2.11
 220  0.900  0.800  0.359- 320 2.11 414 2.11 337 2.11 417 2.11 418 2.11 420 2.11
 221  0.000  1.000  0.501-  24 2.11  39 2.11 104 2.11  23 2.11  21 2.13
 222  0.100  0.100  0.501-  43 2.11  23 2.11  24 2.11  28 2.11  22 2.13
 223  0.000  0.100  0.430-  23 2.11  22 2.11 123 2.11  21 2.11  25 2.11 102 2.11
 224  0.100  1.000  0.429-  24 2.10  41 2.11 124 2.11  22 2.11  38 2.11  21 2.11
 225  0.000  0.200  0.501-  28 2.11 108 2.11  23 2.12  27 2.12  25 2.13
 226  0.100  0.300  0.501-  47 2.11  27 2.11  28 2.12  32 2.12  26 2.13
 227  1.000  0.300  0.430-  27 2.11  26 2.11  29 2.11  25 2.11 127 2.11 106 2.12
 228  0.100  0.200  0.430-  28 2.11  45 2.11 128 2.11  22 2.11  25 2.11  26 2.11
 229  0.000  0.400  0.501- 112 2.11  32 2.11  31 2.12  27 2.12  29 2.13
 230  0.100  0.500  0.501-  51 2.11  31 2.11  36 2.11  32 2.12  30 2.13
 231  1.000  0.500  0.430-  31 2.11 110 2.11  30 2.11 131 2.11  33 2.11  29 2.12
 232  0.100  0.400  0.430-  32 2.11  49 2.11 132 2.11  29 2.11  26 2.11  30 2.11
 233  0.000  0.600  0.501- 116 2.11  36 2.11  35 2.11  31 2.12  33 2.13
 234  0.100  0.700  0.501-  55 2.11  35 2.11  40 2.11  36 2.11  34 2.13
 235  1.000  0.700  0.429-  35 2.11 114 2.11 135 2.11  34 2.11  33 2.11  37 2.11
 236  0.100  0.600  0.429-  36 2.11  53 2.11  33 2.11 136 2.11  34 2.11  30 2.11
 237  0.000  0.800  0.501- 120 2.11  40 2.11  35 2.11  39 2.11  37 2.13
 238  0.100  0.900  0.501-  59 2.11  40 2.11  24 2.11  39 2.11  38 2.13
 239  0.000  0.900  0.429-  39 2.10 139 2.11  38 2.11  37 2.11 118 2.11  21 2.11
 240  0.100  0.800  0.429-  40 2.10  57 2.11 140 2.11  37 2.11  34 2.11  38 2.11
 241  0.200  1.000  0.501-  44 2.11  43 2.11  59 2.11  24 2.11  41 2.13
 242  0.300  0.100  0.501-  63 2.11  48 2.11  44 2.12  43 2.12  42 2.13
 243  0.200  0.100  0.430-  43 2.11  42 2.11  45 2.11 143 2.11  41 2.12  22 2.12
 244  0.300  0.000  0.430-  44 2.11  61 2.11  42 2.11 144 2.11  58 2.12  41 2.12
 245  0.200  0.200  0.501-  48 2.09  28 2.11  43 2.12  47 2.12  45 2.14
 246  0.300  0.300  0.501-  67 2.11  48 2.11  47 2.12  52 2.12  46 2.13
 247  0.200  0.300  0.430-  47 2.11  46 2.11  45 2.11 147 2.11  26 2.12  49 2.12
 248  0.300  0.200  0.430-  65 2.10  48 2.11  42 2.11  46 2.12  45 2.13 148 2.13
 249  0.200  0.400  0.501-  52 2.10  32 2.11  47 2.11  51 2.12  49 2.13
 250  0.300  0.500  0.501-  71 2.10  51 2.11  52 2.11  56 2.12  50 2.13
 251  0.200  0.500  0.429-  51 2.11  50 2.11 151 2.11  30 2.11  53 2.11  49 2.11
 252  0.300  0.400  0.429-  52 2.11 152 2.11  69 2.11  49 2.11  46 2.11  50 2.11
 253  0.200  0.600  0.501-  56 2.11  36 2.11  55 2.11  51 2.11  53 2.13
 254  0.300  0.700  0.501-  75 2.10  56 2.11  60 2.11  55 2.11  54 2.13
 255  0.200  0.700  0.429-  55 2.11  54 2.11 155 2.11  53 2.11  57 2.11  34 2.11
 256  0.300  0.600  0.430-  56 2.11  73 2.11 156 2.11  54 2.11  50 2.11  53 2.11
 257  0.200  0.800  0.501-  60 2.11  59 2.11  55 2.11  40 2.11  57 2.13
 258  0.300  0.900  0.501-  44 2.11  60 2.11  79 2.11  59 2.11  58 2.13
 259  0.200  0.900  0.429-  59 2.10  58 2.11 159 2.11  41 2.11  57 2.11  38 2.11
 260  0.300  0.800  0.429-  60 2.10  77 2.11  54 2.11 160 2.11  58 2.11  57 2.12
 261  0.400  1.000  0.501-  63 2.09  79 2.11  44 2.12  64 2.12  61 2.13
 262  0.500  0.099  0.501-  68 2.11  64 2.11  63 2.11  62 2.12  83 2.13
 263  0.400  0.101  0.430-  65 2.10  63 2.11  42 2.11  62 2.12  61 2.13 163 2.13
 264  0.500  1.000  0.429-  64 2.11  78 2.11  61 2.11  62 2.11 164 2.11  81 2.12
 265  0.399  0.199  0.505-  48 2.13  63 2.14  68 2.16  67 2.16   1 2.50
 266  0.500  0.300  0.498-  66 2.07  72 2.11  67 2.12  68 2.13  87 2.13
 267  0.400  0.299  0.430-  65 2.10  46 2.11  67 2.12 167 2.12  66 2.12  69 2.13
 268  0.499  0.200  0.430-  65 2.10  62 2.11  68 2.11 168 2.12  66 2.12  85 2.14
 269  0.399  0.401  0.500-  67 2.09  71 2.10  69 2.11  52 2.11  72 2.13
 270  0.500  0.501  0.501-  76 2.12  91 2.12  71 2.13  70 2.14  72 2.15   8 2.69
 271  0.400  0.500  0.430-  70 2.11  73 2.11  71 2.11 171 2.11  69 2.12  50 2.12
 272  0.500  0.400  0.429- 172 2.10  70 2.10  72 2.11  69 2.11  89 2.12  66 2.13
 273  0.399  0.600  0.501-  76 2.08  56 2.11  71 2.12  75 2.12  73 2.13
 274  0.500  0.700  0.501-  76 2.10  95 2.12  80 2.12  75 2.12  74 2.13
 275  0.400  0.700  0.430-  75 2.11  74 2.11  73 2.11 175 2.11  77 2.12  54 2.12
 276  0.500  0.600  0.430-  76 2.10  93 2.11  70 2.12  74 2.12 176 2.13  73 2.13
 277  0.400  0.800  0.501-  75 2.11  80 2.11  79 2.11  60 2.12  77 2.13
 278  0.500  0.900  0.501-  80 2.10  64 2.11  79 2.12  99 2.12  78 2.13
 279  0.400  0.900  0.430-  79 2.11  77 2.11  61 2.11 179 2.11  78 2.11  58 2.11
 280  0.500  0.800  0.430-  80 2.11  74 2.11  97 2.11 180 2.11  78 2.12  77 2.12
 281  0.600  1.000  0.501-  83 2.10  99 2.10  64 2.11  84 2.12  81 2.13
 282  0.700  0.099  0.501-  84 2.10  88 2.11  83 2.11 103 2.12  82 2.13
 283  0.600  0.100  0.429-  81 2.11 183 2.11  62 2.11  83 2.11  85 2.11  82 2.12
 284  0.700  1.000  0.429-  84 2.11  98 2.11 184 2.11  81 2.11 101 2.11  82 2.12
 285  0.600  0.199  0.499-  68 2.09  85 2.10  83 2.11  87 2.12  88 2.12
 286  0.700  0.299  0.499-  86 2.08  92 2.10  87 2.11 107 2.11  88 2.12
 287  0.600  0.300  0.429- 187 2.10  89 2.11  85 2.11  66 2.11  86 2.12  87 2.13
 288  0.700  0.200  0.429-  82 2.11 105 2.11 188 2.11  85 2.12  86 2.12  88 2.13
 289  0.600  0.400  0.498-  89 2.08  91 2.08  92 2.12  72 2.13  87 2.13
 290  0.700  0.501  0.501-  96 2.12  91 2.12 111 2.13  90 2.14  92 2.16   9 2.66
 291  0.600  0.501  0.430-  91 2.09  93 2.10  70 2.12  90 2.12 191 2.13  89 2.15
 292  0.700  0.400  0.429-  90 2.10 109 2.11 192 2.11  89 2.11  92 2.13  86 2.13
 293  0.600  0.602  0.503-  95 2.12  76 2.16  96 2.16  91 2.20  93 2.21  10 2.37
 294  0.700  0.700  0.501-  96 2.10  95 2.12 100 2.12 115 2.13  94 2.14
 295  0.600  0.700  0.430-  93 2.10  95 2.10  74 2.12  94 2.12 195 2.12  97 2.13
 296  0.699  0.600  0.430-  93 2.10  96 2.11  94 2.12  90 2.12 196 2.13 113 2.13
 297  0.600  0.800  0.501-  95 2.08  99 2.11  80 2.12 100 2.12  97 2.13
 298  0.700  0.900  0.501- 100 2.10  84 2.11  99 2.12 119 2.12  98 2.13
 299  0.600  0.900  0.429-  97 2.11  99 2.11 199 2.11  81 2.11  78 2.11  98 2.12
 300  0.700  0.800  0.430- 100 2.11  94 2.11  97 2.11 200 2.11  98 2.12 117 2.12
 301  0.800  1.000  0.501- 119 2.11 103 2.11 104 2.11  84 2.11 101 2.13
 302  0.900  0.100  0.501-  23 2.11 104 2.11 108 2.11 103 2.11 102 2.13
 303  0.800  0.100  0.430- 103 2.11 102 2.11 101 2.11  82 2.12 105 2.12 203 2.12
 304  0.900  1.000  0.429- 104 2.11 118 2.11  21 2.11 204 2.11 101 2.11 102 2.11
 305  0.801  0.199  0.501- 108 2.11 103 2.11  88 2.12 107 2.12 105 2.14
 306  0.900  0.300  0.501-  27 2.11 112 2.11 108 2.12 107 2.12 106 2.14
 307  0.800  0.300  0.430- 106 2.11 109 2.11 105 2.11  86 2.12 207 2.12 107 2.14
 308  0.900  0.200  0.430- 108 2.11  25 2.11 102 2.11 106 2.11 105 2.11 208 2.12
 309  0.801  0.400  0.501- 111 2.11 112 2.11  92 2.12 107 2.13 109 2.13
 310  0.900  0.500  0.501- 111 2.10  31 2.11 116 2.12 112 2.12 110 2.13
 311  0.800  0.500  0.430-  90 2.11 113 2.11 111 2.12 110 2.12 211 2.12 109 2.12
 312  0.900  0.400  0.430- 110 2.11 112 2.11 109 2.11  29 2.11 106 2.12 212 2.12
 313  0.800  0.600  0.501-  96 2.08 116 2.12 111 2.12 115 2.12 113 2.13
 314  0.900  0.700  0.501- 115 2.10 116 2.11  35 2.11 120 2.11 114 2.13
 315  0.800  0.700  0.430- 115 2.11  94 2.11 113 2.11 215 2.12 117 2.12 114 2.12
 316  0.900  0.600  0.430- 113 2.11 116 2.11 114 2.11  33 2.11 216 2.11 110 2.12
 317  0.800  0.800  0.501- 115 2.10 100 2.11 119 2.11 120 2.12 117 2.13
 318  0.900  0.900  0.501- 120 2.11 119 2.11 104 2.11  39 2.11 118 2.13
 319  0.800  0.900  0.429- 119 2.11 117 2.11 219 2.11  98 2.11 118 2.11 101 2.12
 320  0.900  0.800  0.429- 120 2.10 117 2.11 114 2.11 220 2.11  37 2.11 118 2.11
 321  0.000  0.000  0.359- 123 2.11 124 2.11 139 2.11 204 2.11 121 2.11  21 2.12
 322  0.100  0.100  0.359- 123 2.11 124 2.11 128 2.11 143 2.11 122 2.11  22 2.12
 323  0.000  0.100  0.289- 121 2.11 122 2.11 125 2.11 202 2.11 123 2.11
 324  0.100  0.000  0.289- 121 2.11 122 2.11 138 2.11 141 2.11 124 2.11
 325  0.000  0.200  0.359- 127 2.11 123 2.11 128 2.11 208 2.11 125 2.11  25 2.12
 326  0.100  0.300  0.359- 128 2.11 127 2.11 132 2.11 147 2.11 126 2.11  26 2.12
 327  0.000  0.300  0.289- 125 2.11 126 2.11 129 2.11 206 2.11 127 2.11
 328  0.100  0.200  0.289- 126 2.11 125 2.11 122 2.11 145 2.11 128 2.11
 329  0.000  0.400  0.359- 127 2.11 131 2.11 132 2.11 212 2.11 129 2.11  29 2.12
 330  0.100  0.500  0.359- 131 2.11 132 2.11 136 2.11 151 2.11 130 2.11  30 2.12
 331  0.000  0.500  0.289- 129 2.11 130 2.11 133 2.11 210 2.11 131 2.11
 332  0.100  0.400  0.289- 126 2.11 129 2.11 130 2.11 149 2.11 132 2.11
 333  0.000  0.600  0.359- 131 2.11 135 2.11 136 2.11 216 2.11 133 2.11  33 2.12
 334  0.100  0.700  0.359- 140 2.11 136 2.11 135 2.11 155 2.11 134 2.11  34 2.12
 335  0.000  0.700  0.289- 137 2.11 134 2.11 133 2.11 214 2.11 135 2.11
 336  0.100  0.600  0.289- 130 2.11 133 2.11 134 2.11 153 2.11 136 2.11
 337  0.000  0.800  0.359- 135 2.11 139 2.11 140 2.11 220 2.11 137 2.11  37 2.12
 338  0.100  0.900  0.359- 124 2.11 139 2.11 140 2.11 159 2.11 138 2.11  38 2.12
 339  0.000  0.900  0.289- 121 2.11 137 2.11 138 2.11 218 2.11 139 2.11
 340  0.100  0.800  0.289- 134 2.11 137 2.11 138 2.11 157 2.11 140 2.11
 341  0.200  0.000  0.359- 144 2.11 143 2.11 124 2.11 159 2.11 141 2.11  41 2.12
 342  0.300  0.100  0.359- 143 2.11 144 2.11 148 2.11 163 2.11 142 2.11  42 2.13
 343  0.200  0.100  0.289- 142 2.11 141 2.11 122 2.11 145 2.11 143 2.11
 344  0.300  0.000  0.289- 141 2.11 142 2.11 158 2.11 161 2.11 144 2.11
 345  0.200  0.200  0.359- 147 2.11 148 2.11 128 2.11 143 2.11 145 2.11  45 2.12
 346  0.300  0.300  0.359- 147 2.11 148 2.11 152 2.11 167 2.11 146 2.11  46 2.12
 347  0.200  0.300  0.289- 145 2.11 146 2.11 126 2.11 149 2.11 147 2.11
 348  0.300  0.200  0.289- 145 2.11 146 2.11 142 2.11 165 2.11 148 2.11
 349  0.200  0.400  0.359- 152 2.11 147 2.11 151 2.11 132 2.11 149 2.11  49 2.12
 350  0.300  0.500  0.359- 151 2.11 152 2.11 156 2.11 171 2.11 150 2.11  50 2.12
 351  0.200  0.500  0.289- 150 2.11 149 2.11 130 2.11 153 2.11 151 2.11
 352  0.300  0.400  0.289- 149 2.11 146 2.11 150 2.11 169 2.11 152 2.11
 353  0.200  0.600  0.359- 156 2.11 151 2.11 155 2.11 136 2.11 153 2.11  53 2.12
 354  0.300  0.700  0.359- 155 2.11 160 2.11 156 2.11 175 2.11 154 2.11  54 2.12
 355  0.200  0.700  0.289- 154 2.11 157 2.11 134 2.11 153 2.11 155 2.11
 356  0.300  0.600  0.289- 153 2.11 150 2.11 154 2.11 173 2.11 156 2.11
 357  0.200  0.800  0.359- 155 2.11 160 2.11 159 2.11 140 2.11 157 2.11  57 2.12
 358  0.300  0.900  0.359- 159 2.11 144 2.11 160 2.11 179 2.11 158 2.11  58 2.12
 359  0.200  0.900  0.289- 158 2.11 141 2.11 157 2.11 138 2.11 159 2.11
 360  0.300  0.800  0.289- 154 2.11 157 2.11 158 2.11 177 2.11 160 2.11
 361  0.400  0.000  0.359- 144 2.11 163 2.11 164 2.11 179 2.11 161 2.11  61 2.12
 362  0.500  0.100  0.359- 163 2.11 164 2.11 168 2.11 183 2.11 162 2.11  62 2.12
 363  0.400  0.100  0.289- 142 2.11 161 2.11 162 2.11 165 2.11 163 2.11
 364  0.500  0.000  0.289- 161 2.11 162 2.11 178 2.11 181 2.11 164 2.11
 365  0.400  0.200  0.359-  65 2.11 167 2.11 163 2.11 148 2.11 168 2.11 165 2.11
 366  0.500  0.300  0.359-  66 2.10 168 2.11 167 2.11 172 2.11 187 2.11 166 2.11
 367  0.400  0.300  0.289- 165 2.11 146 2.11 166 2.11 169 2.11 167 2.11
 368  0.500  0.200  0.289- 166 2.11 165 2.11 162 2.11 185 2.11 168 2.11
 369  0.400  0.400  0.359- 152 2.11 167 2.11 171 2.11 172 2.11 169 2.11  69 2.11
 370  0.500  0.500  0.359-  70 2.11 171 2.11 172 2.11 176 2.11 191 2.11 170 2.11
 371  0.400  0.500  0.289- 150 2.11 169 2.11 170 2.11 173 2.11 171 2.11
 372  0.500  0.400  0.289- 166 2.11 169 2.11 170 2.11 189 2.11 172 2.11
 373  0.400  0.600  0.359- 156 2.11 171 2.11 175 2.11 176 2.11 173 2.11  73 2.12
 374  0.500  0.700  0.359- 180 2.11 176 2.11 175 2.11 195 2.11 174 2.11  74 2.12
 375  0.400  0.700  0.289- 177 2.11 173 2.11 174 2.11 154 2.11 175 2.11
 376  0.500  0.600  0.289- 170 2.11 173 2.11 174 2.11 193 2.11 176 2.11
 377  0.400  0.800  0.359- 175 2.11 160 2.11 179 2.11 180 2.11 177 2.11  77 2.12
 378  0.500  0.900  0.359- 164 2.11 179 2.11 180 2.11 199 2.11 178 2.11  78 2.12
 379  0.400  0.900  0.289- 158 2.11 161 2.11 177 2.11 178 2.11 179 2.11
 380  0.500  0.800  0.289- 174 2.11 177 2.11 178 2.11 197 2.11 180 2.11
 381  0.600  0.000  0.359- 164 2.11 183 2.11 184 2.11 199 2.11 181 2.11  81 2.12
 382  0.700  0.100  0.359- 203 2.11 184 2.11 188 2.11 183 2.11 182 2.11  82 2.12
 383  0.600  0.100  0.289- 162 2.11 181 2.11 182 2.11 185 2.11 183 2.11
 384  0.700  0.000  0.289- 201 2.11 182 2.11 198 2.11 181 2.11 184 2.11
 385  0.600  0.200  0.359-  85 2.11 187 2.11 183 2.11 168 2.11 188 2.11 185 2.11
 386  0.700  0.300  0.359-  86 2.11 188 2.11 207 2.11 192 2.11 187 2.11 186 2.11
 387  0.600  0.300  0.289- 185 2.11 166 2.11 186 2.11 189 2.11 187 2.11
 388  0.700  0.200  0.289- 186 2.11 205 2.11 182 2.11 185 2.11 188 2.11
 389  0.600  0.400  0.359-  89 2.10 172 2.11 187 2.11 191 2.11 192 2.11 189 2.11
 390  0.700  0.500  0.359-  90 2.11 211 2.11 192 2.11 196 2.11 191 2.11 190 2.11
 391  0.600  0.500  0.289- 170 2.11 189 2.11 190 2.11 193 2.11 191 2.11
 392  0.700  0.400  0.289- 209 2.11 189 2.11 190 2.11 186 2.11 192 2.11
 393  0.600  0.600  0.359-  93 2.11 176 2.11 191 2.11 195 2.11 196 2.11 193 2.11
 394  0.700  0.700  0.359- 200 2.11 215 2.11 195 2.11 196 2.11 194 2.11  94 2.12
 395  0.600  0.700  0.289- 197 2.11 193 2.11 194 2.11 174 2.11 195 2.11
 396  0.700  0.600  0.289- 213 2.11 193 2.11 194 2.11 190 2.11 196 2.11
 397  0.600  0.800  0.359- 195 2.11 180 2.11 199 2.11 200 2.11 197 2.11  97 2.12
 398  0.700  0.900  0.359- 219 2.11 199 2.11 200 2.11 184 2.11 198 2.11  98 2.12
 399  0.600  0.900  0.289- 178 2.11 181 2.11 197 2.11 198 2.11 199 2.11
 400  0.700  0.800  0.289- 194 2.11 217 2.11 198 2.11 197 2.11 200 2.11
 401  0.800  0.000  0.359- 184 2.11 203 2.11 204 2.11 219 2.11 201 2.11 101 2.12
 402  0.900  0.100  0.359- 123 2.11 203 2.11 204 2.11 208 2.11 202 2.11 102 2.12
 403  0.800  0.100  0.289- 182 2.11 201 2.11 202 2.11 205 2.11 203 2.11
 404  0.900  0.000  0.289- 121 2.11 201 2.11 202 2.11 218 2.11 204 2.11
 405  0.800  0.200  0.359- 188 2.11 207 2.11 203 2.11 208 2.11 205 2.11 105 2.12
 406  0.900  0.300  0.359- 208 2.11 207 2.11 127 2.11 212 2.11 206 2.11 106 2.12
 407  0.800  0.300  0.289- 186 2.11 205 2.11 206 2.11 209 2.11 207 2.11
 408  0.900  0.200  0.289- 206 2.11 202 2.11 205 2.11 125 2.11 208 2.11
 409  0.800  0.400  0.359- 192 2.11 207 2.11 211 2.11 212 2.11 209 2.11 109 2.12
 410  0.900  0.500  0.359- 131 2.11 211 2.11 212 2.11 216 2.11 210 2.11 110 2.12
 411  0.800  0.500  0.289- 190 2.11 209 2.11 210 2.11 213 2.11 211 2.11
 412  0.900  0.400  0.289- 129 2.11 206 2.11 209 2.11 210 2.11 212 2.11
 413  0.800  0.600  0.359- 196 2.11 211 2.11 215 2.11 216 2.11 213 2.11 113 2.12
 414  0.900  0.700  0.359- 220 2.11 215 2.11 216 2.11 135 2.11 214 2.11 114 2.12
 415  0.800  0.700  0.289- 194 2.11 217 2.11 214 2.11 213 2.11 215 2.11
 416  0.900  0.600  0.289- 133 2.11 210 2.11 213 2.11 214 2.11 216 2.11
 417  0.800  0.800  0.359- 200 2.11 215 2.11 219 2.11 220 2.11 217 2.11 117 2.12
 418  0.900  0.900  0.359- 139 2.11 204 2.11 219 2.11 220 2.11 218 2.11 118 2.12
 419  0.800  0.900  0.289- 198 2.11 201 2.11 217 2.11 218 2.11 219 2.11
 420  0.900  0.800  0.289- 214 2.11 137 2.11 217 2.11 218 2.11 220 2.11
 
  LATTYP: Found a simple tetragonal cell.
 ALAT       =    21.1388521970
 C/A-ratio  =     1.4191877459
  
  Lattice vectors:
  
 A1 = (  21.1388521970,   0.0000000000,   0.0000000000)
 A2 = (   0.0000000000,  21.1388521970,   0.0000000000)
 A3 = (   0.0000000000,   0.0000000000,  30.0000000000)


Analysis of symmetry for initial positions (statically):
=====================================================================
 Subroutine PRICEL returns:
 Original cell was already a primitive cell.
 

 Routine SETGRP: Setting up the symmetry group for a 
 simple tetragonal supercell.


 Subroutine GETGRP returns: Found  1 space group operations
 (whereof  1 operations were pure point group operations)
 out of a pool of 16 trial point group operations.


The static configuration has the point symmetry C_1 .


Analysis of symmetry for dynamics (positions and initial velocities):
=====================================================================
 Subroutine PRICEL returns:
 Original cell was already a primitive cell.
 

 Routine SETGRP: Setting up the symmetry group for a 
 simple tetragonal supercell.


 Subroutine GETGRP returns: Found  1 space group operations
 (whereof  1 operations were pure point group operations)
 out of a pool of 16 trial point group operations.


The dynamic configuration has the point symmetry C_1 .


Analysis of constrained symmetry for selective dynamics:
=====================================================================
 Subroutine PRICEL returns:
 Original cell was already a primitive cell.
 

 Routine SETGRP: Setting up the symmetry group for a 
 simple tetragonal supercell.


 Subroutine GETGRP returns: Found  1 space group operations
 (whereof  1 operations were pure point group operations)
 out of a pool of 16 trial point group operations.


The constrained configuration has the point symmetry C_1 .


 Subroutine INISYM returns: Found  1 space group operations
 (whereof  1 operations are pure point group operations),
 and found     1 'primitive' translations


----------------------------------------------------------------------------------------

                                     Primitive cell                                     

  volume of cell :   13405.5322

  direct lattice vectors                    reciprocal lattice vectors
    21.138852197  0.000000000  0.000000000     0.047306258  0.000000000  0.000000000
     0.000000000 21.138852197  0.000000000     0.000000000  0.047306258  0.000000000
     0.000000000  0.000000000 30.000000000     0.000000000  0.000000000  0.033333333

  length of vectors
    21.138852197 21.138852197 30.000000000     0.047306258  0.047306258  0.033333333

  position of ions in fractional coordinates (direct lattice)
     0.430802509  0.226721605  0.582680199
     0.559114854  0.236827040  0.589635708
     0.683383514  0.251582691  0.593121479
     0.809351285  0.259595532  0.596321944
     0.475567002  0.348340382  0.587210262
     0.610058560  0.362830825  0.589797642
     0.748479570  0.372673098  0.592725866
     0.523622431  0.466514583  0.585325459
     0.678342135  0.477530446  0.586674604
     0.594965477  0.575656015  0.579812068
     0.479531205  0.268834228  0.662202631
     0.612663710  0.277365968  0.669387074
     0.745074554  0.297147586  0.672032451
     0.525223985  0.398906808  0.664120580
     0.678677097  0.412703608  0.666982349
     0.594592074  0.514935576  0.658271293
     0.533001466  0.318091748  0.736009581
     0.673111120  0.333223887  0.740814330
     0.594950493  0.446321034  0.734104940
     0.594804595  0.368188513  0.806220274
     0.000019152  0.999965082  0.429715584
     0.099920090  0.099944082  0.429750743
     0.000098936  0.099762533  0.499710081
     0.099897533  0.999843377  0.499641300
     0.999999987  0.199939998  0.429769300
     0.099902810  0.299971723  0.429768655
     0.000240950  0.299895745  0.499816887
     0.099835628  0.199854344  0.499738405
     0.999981347  0.399968372  0.429799748
     0.099923964  0.500037498  0.429747921
     0.000128718  0.500110102  0.499758333
     0.099877394  0.400086139  0.499703881
     0.000031270  0.600041807  0.429751405
     0.099949428  0.700048152  0.429714135
     0.000129258  0.700166828  0.499666663
     0.099914068  0.600149025  0.499670500
     0.000040966  0.800040283  0.429704143
     0.099964601  0.899991331  0.429693332
     0.000098385  0.899978228  0.499629163
     0.099941919  0.800054598  0.499621066
     0.199899591  0.999964819  0.429719441
     0.299874579  0.099935235  0.429976389
     0.199616959  0.099678670  0.499770015
     0.299558127  0.999697672  0.499754935
     0.199789505  0.199954588  0.429816067
     0.299788693  0.300010905  0.429884210
     0.199547678  0.300139422  0.499757156
     0.298374272  0.199914143  0.500312132
     0.199825616  0.400029510  0.429721332
     0.299725833  0.500063728  0.429742534
     0.199669663  0.500167741  0.499692797
     0.299213158  0.400145005  0.499755480
     0.199843930  0.600072315  0.429732309
     0.299787343  0.700085758  0.429733115
     0.199753089  0.700149010  0.499647490
     0.299462120  0.600235710  0.499746093
     0.199883442  0.800026101  0.429696820
     0.299863406  0.899984571  0.429723098
     0.199767132  0.899930267  0.499623640
     0.299626625  0.800154568  0.499647448
     0.399877934  0.999876297  0.429798172
     0.499994577  0.099778884  0.429838975
     0.399801241  0.098405393  0.500332593
     0.500020125  0.999675773  0.499725930
     0.399932324  0.200023182  0.429249280
     0.499986223  0.299846896  0.429216449
     0.399304635  0.301649179  0.500242471
     0.501221012  0.199110187  0.499933088
     0.399745554  0.400069417  0.429540689
     0.499739649  0.499995599  0.429365553
     0.398745125  0.499963377  0.499968544
     0.499650714  0.399351485  0.499581143
     0.399587640  0.600093684  0.429765472
     0.499808822  0.700294641  0.429835440
     0.399305986  0.700554919  0.499778467
     0.497792892  0.601169900  0.500069259
     0.399818424  0.800103826  0.429723911
     0.499909856  0.900073787  0.429739979
     0.399683987  0.899984610  0.499699815
     0.499558518  0.800526747  0.499737568
     0.600050644  0.999977099  0.429703554
     0.700138434  0.099927676  0.429818321
     0.600190597  0.099193767  0.499851808
     0.700206887  0.999847118  0.499737755
     0.600235906  0.199724597  0.429331121
     0.700246589  0.299582150  0.429452753
     0.600335198  0.299133486  0.499855377
     0.700314778  0.199104545  0.500499427
     0.600218328  0.399364779  0.429189197
     0.700268228  0.499894772  0.429529851
     0.599959349  0.498149900  0.499704109
     0.700325810  0.398800602  0.500510720
     0.599961451  0.600286033  0.429244578
     0.700144091  0.700281170  0.429868435
     0.599912210  0.702312272  0.499926694
     0.701874339  0.601286309  0.500248440
     0.599993294  0.800372261  0.429706562
     0.700097106  0.900119102  0.429747190
     0.600038940  0.900191766  0.499694725
     0.700388135  0.800536161  0.499754013
     0.800104930  0.999985607  0.429756950
     0.900055611  0.099929824  0.429805352
     0.800281356  0.099390167  0.499951703
     0.900239789  0.999851168  0.499692533
     0.800111642  0.199963418  0.429755814
     0.899932019  0.299909418  0.429846788
     0.800188299  0.299788221  0.500808756
     0.900538519  0.199667907  0.499870040
     0.800066212  0.399779489  0.429735306
     0.900107984  0.499959584  0.429864697
     0.801091229  0.500082849  0.500298662
     0.900570243  0.399881909  0.500079365
     0.800305117  0.600060919  0.429865341
     0.900134777  0.700077663  0.429757173
     0.800590878  0.700569206  0.499827551
     0.900423922  0.600244453  0.499826878
     0.800133836  0.800122562  0.429738088
     0.900083219  0.900026175  0.429720431
     0.800269311  0.900104348  0.499682626
     0.900269395  0.800195381  0.499662249
     0.000000000  0.000000000  0.288611000
     0.100000000  0.100000000  0.288611000
     0.000000000  0.100000000  0.359074000
     0.100000000  0.000000000  0.359074000
     0.000000000  0.200000000  0.288611000
     0.100000000  0.300000000  0.288611000
     0.000000000  0.300000000  0.359074000
     0.100000000  0.200000000  0.359074000
     0.000000000  0.400000000  0.288611000
     0.100000000  0.500000000  0.288611000
     0.000000000  0.500000000  0.359074000
     0.100000000  0.400000000  0.359074000
     0.000000000  0.600000000  0.288611000
     0.100000000  0.700000000  0.288611000
     0.000000000  0.700000000  0.359074000
     0.100000000  0.600000000  0.359074000
     0.000000000  0.800000000  0.288611000
     0.100000000  0.900000000  0.288611000
     0.000000000  0.900000000  0.359074000
     0.100000000  0.800000000  0.359074000
     0.200000000  0.000000000  0.288611000
     0.300000000  0.100000000  0.288611000
     0.200000000  0.100000000  0.359074000
     0.300000000  0.000000000  0.359074000
     0.200000000  0.200000000  0.288611000
     0.300000000  0.300000000  0.288611000
     0.200000000  0.300000000  0.359074000
     0.300000000  0.200000000  0.359074000
     0.200000000  0.400000000  0.288611000
     0.300000000  0.500000000  0.288611000
     0.200000000  0.500000000  0.359074000
     0.300000000  0.400000000  0.359074000
     0.200000000  0.600000000  0.288611000
     0.300000000  0.700000000  0.288611000
     0.200000000  0.700000000  0.359074000
     0.300000000  0.600000000  0.359074000
     0.200000000  0.800000000  0.288611000
     0.300000000  0.900000000  0.288611000
     0.200000000  0.900000000  0.359074000
     0.300000000  0.800000000  0.359074000
     0.400000000  0.000000000  0.288611000
     0.500000000  0.100000000  0.288611000
     0.400000000  0.100000000  0.359074000
     0.500000000  0.000000000  0.359074000
     0.400000000  0.200000000  0.288611000
     0.500000000  0.300000000  0.288611000
     0.400000000  0.300000000  0.359074000
     0.500000000  0.200000000  0.359074000
     0.400000000  0.400000000  0.288611000
     0.500000000  0.500000000  0.288611000
     0.400000000  0.500000000  0.359074000
     0.500000000  0.400000000  0.359074000
     0.400000000  0.600000000  0.288611000
     0.500000000  0.700000000  0.288611000
     0.400000000  0.700000000  0.359074000
     0.500000000  0.600000000  0.359074000
     0.400000000  0.800000000  0.288611000
     0.500000000  0.900000000  0.288611000
     0.400000000  0.900000000  0.359074000
     0.500000000  0.800000000  0.359074000
     0.600000000  0.000000000  0.288611000
     0.700000000  0.100000000  0.288611000
     0.600000000  0.100000000  0.359074000
     0.700000000  0.000000000  0.359074000
     0.600000000  0.200000000  0.288611000
     0.700000000  0.300000000  0.288611000
     0.600000000  0.300000000  0.359074000
     0.700000000  0.200000000  0.359074000
     0.600000000  0.400000000  0.288611000
     0.700000000  0.500000000  0.288611000
     0.600000000  0.500000000  0.359074000
     0.700000000  0.400000000  0.359074000
     0.600000000  0.600000000  0.288611000
     0.700000000  0.700000000  0.288611000
     0.600000000  0.700000000  0.359074000
     0.700000000  0.600000000  0.359074000
     0.600000000  0.800000000  0.288611000
     0.700000000  0.900000000  0.288611000
     0.600000000  0.900000000  0.359074000
     0.700000000  0.800000000  0.359074000
     0.800000000  0.000000000  0.288611000
     0.900000000  0.100000000  0.288611000
     0.800000000  0.100000000  0.359074000
     0.900000000  0.000000000  0.359074000
     0.800000000  0.200000000  0.288611000
     0.900000000  0.300000000  0.288611000
     0.800000000  0.300000000  0.359074000
     0.900000000  0.200000000  0.359074000
     0.800000000  0.400000000  0.288611000
     0.900000000  0.500000000  0.288611000
     0.800000000  0.500000000  0.359074000
     0.900000000  0.400000000  0.359074000
     0.800000000  0.600000000  0.288611000
     0.900000000  0.700000000  0.288611000
     0.800000000  0.700000000  0.359074000
     0.900000000  0.600000000  0.359074000
     0.800000000  0.800000000  0.288611000
     0.900000000  0.900000000  0.288611000
     0.800000000  0.900000000  0.359074000
     0.900000000  0.800000000  0.359074000
     0.000147584  0.999821582  0.500810959
     0.099997095  0.099820506  0.500859554
     0.000062682  0.099933057  0.429512550
     0.100044383  0.999981755  0.429476963
     0.000202366  0.199824009  0.500906913
     0.099970077  0.299967317  0.500871693
     0.999989916  0.299973011  0.429566719
     0.100010439  0.199949589  0.429525831
     0.000146650  0.400045073  0.500901540
     0.099941262  0.500131844  0.500838908
     0.999984798  0.500036161  0.429533693
     0.099972161  0.399991620  0.429505921
     0.000075242  0.600170372  0.500843947
     0.099955362  0.700126313  0.500816030
     0.999995861  0.700037379  0.429496639
     0.099952184  0.600056336  0.429492653
     0.000085349  0.800054771  0.500814786
     0.100002599  0.899947267  0.500803635
     0.000044036  0.899963585  0.429464176
     0.099988872  0.800016369  0.429467047
     0.199867635  0.999883360  0.500832489
     0.299823200  0.099891932  0.501136924
     0.200063160  0.100059785  0.429572106
     0.300001948  0.000055210  0.429553328
     0.199645809  0.199881952  0.500984769
     0.299609993  0.299895786  0.500858225
     0.199974943  0.299861285  0.429537667
     0.300477277  0.199910582  0.430051909
     0.199755352  0.400068553  0.500795398
     0.299544881  0.500177488  0.500809171
     0.199906764  0.500063929  0.429494119
     0.299814422  0.400025058  0.429434536
     0.199820610  0.600179382  0.500822513
     0.299764862  0.700190011  0.500828674
     0.199938546  0.700048399  0.429479809
     0.299896008  0.600087399  0.429514670
     0.199857952  0.800050598  0.500794973
     0.299759798  0.899950906  0.500823788
     0.199985612  0.900010248  0.429471426
     0.299941747  0.799999515  0.429483643
     0.399709687  0.999621425  0.500958130
     0.499637009  0.099434013  0.500626338
     0.399771355  0.100500596  0.430038947
     0.499752064  0.999896803  0.429493409
     0.399152188  0.199473142  0.504668936
     0.499671630  0.299682829  0.498055522
     0.399569689  0.299409938  0.429720383
     0.499150472  0.199566105  0.429632555
     0.399105130  0.400536324  0.499896776
     0.499502037  0.500937124  0.500577930
     0.399992051  0.500303620  0.429554931
     0.499795564  0.400489445  0.429178706
     0.399453515  0.600207949  0.500878308
     0.499787599  0.700373609  0.500994114
     0.400005225  0.699983474  0.429555884
     0.500371157  0.600091049  0.429967847
     0.399745461  0.800139025  0.500820506
     0.499815966  0.899971760  0.500828512
     0.399892527  0.899974429  0.429505174
     0.499999200  0.799979402  0.429536756
     0.599949061  0.999704886  0.500767675
     0.700169282  0.099406463  0.500722098
     0.599888442  0.099701715  0.429392423
     0.700061873  0.999858238  0.429493098
     0.599911112  0.198776265  0.499369938
     0.700207437  0.299350865  0.498718869
     0.599977649  0.299581565  0.428938976
     0.700301075  0.199514091  0.429457662
     0.600193850  0.399746479  0.498419526
     0.700199466  0.501183228  0.500869347
     0.599992231  0.500844243  0.429946958
     0.700242585  0.400431294  0.429488527
     0.599783199  0.602013766  0.502940803
     0.699999573  0.700374090  0.501041032
     0.599954138  0.699736140  0.429858815
     0.699497614  0.600087710  0.430061617
     0.599930356  0.800466218  0.500862349
     0.700110297  0.899972349  0.500843185
     0.599943658  0.899988208  0.429490232
     0.699916526  0.799966510  0.429551678
     0.800239789  0.999727148  0.500861247
     0.900310399  0.099684907  0.500945631
     0.800201548  0.099884136  0.429605885
     0.900087174  0.999911175  0.429498931
     0.800801139  0.199278094  0.501097267
     0.900463229  0.299841505  0.501089114
     0.800339716  0.299915551  0.429630210
     0.900123277  0.199912598  0.429600535
     0.800584278  0.400370027  0.500633650
     0.900275354  0.500156419  0.500985920
     0.799870300  0.500206582  0.429761357
     0.900017194  0.400036972  0.429655963
     0.800364866  0.600285896  0.501014431
     0.900157123  0.700193930  0.500864665
     0.799913389  0.699957414  0.429598635
     0.899995843  0.600055376  0.429566774
     0.800156812  0.800123167  0.500843906
     0.900170921  0.899930348  0.500822031
     0.800044483  0.899927282  0.429498128
     0.900010369  0.799981695  0.429497496
     0.000000000  0.000000000  0.359074000
     0.100000000  0.100000000  0.359074000
     0.000000000  0.100000000  0.288611000
     0.100000000  0.000000000  0.288611000
     0.000000000  0.200000000  0.359074000
     0.100000000  0.300000000  0.359074000
     0.000000000  0.300000000  0.288611000
     0.100000000  0.200000000  0.288611000
     0.000000000  0.400000000  0.359074000
     0.100000000  0.500000000  0.359074000
     0.000000000  0.500000000  0.288611000
     0.100000000  0.400000000  0.288611000
     0.000000000  0.600000000  0.359074000
     0.100000000  0.700000000  0.359074000
     0.000000000  0.700000000  0.288611000
     0.100000000  0.600000000  0.288611000
     0.000000000  0.800000000  0.359074000
     0.100000000  0.900000000  0.359074000
     0.000000000  0.900000000  0.288611000
     0.100000000  0.800000000  0.288611000
     0.200000000  0.000000000  0.359074000
     0.300000000  0.100000000  0.359074000
     0.200000000  0.100000000  0.288611000
     0.300000000  0.000000000  0.288611000
     0.200000000  0.200000000  0.359074000
     0.300000000  0.300000000  0.359074000
     0.200000000  0.300000000  0.288611000
     0.300000000  0.200000000  0.288611000
     0.200000000  0.400000000  0.359074000
     0.300000000  0.500000000  0.359074000
     0.200000000  0.500000000  0.288611000
     0.300000000  0.400000000  0.288611000
     0.200000000  0.600000000  0.359074000
     0.300000000  0.700000000  0.359074000
     0.200000000  0.700000000  0.288611000
     0.300000000  0.600000000  0.288611000
     0.200000000  0.800000000  0.359074000
     0.300000000  0.900000000  0.359074000
     0.200000000  0.900000000  0.288611000
     0.300000000  0.800000000  0.288611000
     0.400000000  0.000000000  0.359074000
     0.500000000  0.100000000  0.359074000
     0.400000000  0.100000000  0.288611000
     0.500000000  0.000000000  0.288611000
     0.400000000  0.200000000  0.359074000
     0.500000000  0.300000000  0.359074000
     0.400000000  0.300000000  0.288611000
     0.500000000  0.200000000  0.288611000
     0.400000000  0.400000000  0.359074000
     0.500000000  0.500000000  0.359074000
     0.400000000  0.500000000  0.288611000
     0.500000000  0.400000000  0.288611000
     0.400000000  0.600000000  0.359074000
     0.500000000  0.700000000  0.359074000
     0.400000000  0.700000000  0.288611000
     0.500000000  0.600000000  0.288611000
     0.400000000  0.800000000  0.359074000
     0.500000000  0.900000000  0.359074000
     0.400000000  0.900000000  0.288611000
     0.500000000  0.800000000  0.288611000
     0.600000000  0.000000000  0.359074000
     0.700000000  0.100000000  0.359074000
     0.600000000  0.100000000  0.288611000
     0.700000000  0.000000000  0.288611000
     0.600000000  0.200000000  0.359074000
     0.700000000  0.300000000  0.359074000
     0.600000000  0.300000000  0.288611000
     0.700000000  0.200000000  0.288611000
     0.600000000  0.400000000  0.359074000
     0.700000000  0.500000000  0.359074000
     0.600000000  0.500000000  0.288611000
     0.700000000  0.400000000  0.288611000
     0.600000000  0.600000000  0.359074000
     0.700000000  0.700000000  0.359074000
     0.600000000  0.700000000  0.288611000
     0.700000000  0.600000000  0.288611000
     0.600000000  0.800000000  0.359074000
     0.700000000  0.900000000  0.359074000
     0.600000000  0.900000000  0.288611000
     0.700000000  0.800000000  0.288611000
     0.800000000  0.000000000  0.359074000
     0.900000000  0.100000000  0.359074000
     0.800000000  0.100000000  0.288611000
     0.900000000  0.000000000  0.288611000
     0.800000000  0.200000000  0.359074000
     0.900000000  0.300000000  0.359074000
     0.800000000  0.300000000  0.288611000
     0.900000000  0.200000000  0.288611000
     0.800000000  0.400000000  0.359074000
     0.900000000  0.500000000  0.359074000
     0.800000000  0.500000000  0.288611000
     0.900000000  0.400000000  0.288611000
     0.800000000  0.600000000  0.359074000
     0.900000000  0.700000000  0.359074000
     0.800000000  0.700000000  0.288611000
     0.900000000  0.600000000  0.288611000
     0.800000000  0.800000000  0.359074000
     0.900000000  0.900000000  0.359074000
     0.800000000  0.900000000  0.288611000
     0.900000000  0.800000000  0.288611000

  ion indices of the primitive-cell ions
   primitive index   ion index
                 1           1
                 2           2
                 3           3
                 4           4
                 5           5
                 6           6
                 7           7
                 8           8
                 9           9
                10          10
                11          11
                12          12
                13          13
                14          14
                15          15
                16          16
                17          17
                18          18
                19          19
                20          20
                21          21
                22          22
                23          23
                24          24
                25          25
                26          26
                27          27
                28          28
                29          29
                30          30
                31          31
                32          32
                33          33
                34          34
                35          35
                36          36
                37          37
                38          38
                39          39
                40          40
                41          41
                42          42
                43          43
                44          44
                45          45
                46          46
                47          47
                48          48
                49          49
                50          50
                51          51
                52          52
                53          53
                54          54
                55          55
                56          56
                57          57
                58          58
                59          59
                60          60
                61          61
                62          62
                63          63
                64          64
                65          65
                66          66
                67          67
                68          68
                69          69
                70          70
                71          71
                72          72
                73          73
                74          74
                75          75
                76          76
                77          77
                78          78
                79          79
                80          80
                81          81
                82          82
                83          83
                84          84
                85          85
                86          86
                87          87
                88          88
                89          89
                90          90
                91          91
                92          92
                93          93
                94          94
                95          95
                96          96
                97          97
                98          98
                99          99
               100         100
               101         101
               102         102
               103         103
               104         104
               105         105
               106         106
               107         107
               108         108
               109         109
               110         110
               111         111
               112         112
               113         113
               114         114
               115         115
               116         116
               117         117
               118         118
               119         119
               120         120
               121         121
               122         122
               123         123
               124         124
               125         125
               126         126
               127         127
               128         128
               129         129
               130         130
               131         131
               132         132
               133         133
               134         134
               135         135
               136         136
               137         137
               138         138
               139         139
               140         140
               141         141
               142         142
               143         143
               144         144
               145         145
               146         146
               147         147
               148         148
               149         149
               150         150
               151         151
               152         152
               153         153
               154         154
               155         155
               156         156
               157         157
               158         158
               159         159
               160         160
               161         161
               162         162
               163         163
               164         164
               165         165
               166         166
               167         167
[...]
     16.91108      8.45554      8.65833         0.013413     -0.012161      0.616694
     19.02497     10.56943      8.65833         0.010016     -0.006794      0.616098
     16.91108     10.56943     10.77222         0.037790     -0.015758      0.047747
     19.02497      8.45554     10.77222         0.009165     -0.013657      0.053584
     16.91108     12.68331      8.65833         0.015343     -0.000978      0.603742
     19.02497     14.79720      8.65833         0.009436      0.002351      0.614224
     16.91108     14.79720     10.77222         0.020232      0.009501      0.037604
     19.02497     12.68331     10.77222         0.021000     -0.004686      0.042238
     16.91108     16.91108      8.65833         0.008854      0.008306      0.612653
     19.02497     19.02497      8.65833         0.002846      0.004834      0.617902
     16.91108     19.02497     10.77222         0.008198      0.012632      0.034643
     19.02497     16.91108     10.77222         0.010294      0.006269      0.032878
      0.00312     21.13508     15.02433        -0.004293      0.007055     -0.026562
      2.11382      2.11009     15.02579         0.000107     -0.000814     -0.035571
      0.00133      2.11247     12.88538         0.004622     -0.003366     -0.005104
      2.11482     21.13847     12.88431         0.001715     -0.001227     -0.010438
      0.00428      4.22405     15.02721        -0.004292      0.000373     -0.023368
      2.11325      6.34096     15.02615         0.001520     -0.002819     -0.036820
     21.13864      6.34109     12.88700         0.007950     -0.004385     -0.001149
      2.11411      4.22670     12.88577         0.001879     -0.003448     -0.003331
      0.00310      8.45649     15.02705         0.002273     -0.003527     -0.030546
      2.11264     10.57221     15.02517         0.003242     -0.003167     -0.036948
     21.13853     10.57019     12.88601         0.004247      0.002432     -0.005959
      2.11330      8.45536     12.88518         0.001549     -0.002146     -0.005639
      0.00159     12.68691     15.02532         0.000687     -0.000447     -0.033177
      2.11294     14.79987     15.02448         0.002896     -0.002971     -0.038635
     21.13876     14.79799     12.88490         0.001040      0.002412     -0.012762
      2.11287     12.68450     12.88478         0.001358      0.001935     -0.010434
      0.00180     16.91224     15.02444        -0.001935     -0.001968     -0.038655
      2.11394     19.02385     15.02411         0.000569      0.003912     -0.041196
      0.00093     19.02420     12.88393         0.001977     -0.000876     -0.010599
      2.11365     16.91143     12.88401         0.001126      0.000531     -0.013455
      4.22497     21.13639     15.02497         0.002624      0.001488     -0.035465
      6.33792      2.11160     15.03411        -0.003567     -0.002887     -0.018580
      4.22911      2.11515     12.88716        -0.000589     -0.001131     -0.004700
      6.34170      0.00117     12.88660        -0.001208     -0.001068     -0.003557
      4.22028      4.22528     15.02954         0.010175      0.001613     -0.027251
      6.33341      6.33945     15.02575         0.003998      0.001267     -0.017657
      4.22724      6.33872     12.88613        -0.002679     -0.005941     -0.003678
      6.35174      4.22588     12.90156        -0.017760     -0.002526      0.004307
      4.22260      8.45699     15.02386         0.006704     -0.009662     -0.027411
      6.33203     10.57318     15.02428         0.007070     -0.005259     -0.023475
      4.22580     10.57078     12.88482        -0.004507      0.001520     -0.009420
      6.33773      8.45607     12.88304        -0.013662     -0.000323     -0.010794
      4.22398     12.68710     15.02468         0.006122     -0.005595     -0.030132
      6.33669     14.80121     15.02486         0.008073     -0.004839     -0.027657
      4.22647     14.79822     12.88439        -0.000337      0.001737     -0.011142
      6.33946     12.68516     12.88544        -0.005344      0.005224     -0.009812
      4.22477     16.91215     15.02385         0.006240     -0.002948     -0.034442
      6.33658     19.02393     15.02471         0.004848      0.002198     -0.031984
      4.22747     19.02518     12.88414        -0.000149     -0.000027     -0.012097
      6.34042     16.91107     12.88451        -0.000887      0.000854     -0.010756
      8.44940     21.13085     15.02874         0.004895      0.007369     -0.024607
     10.56175      2.10192     15.01879         0.004056      0.001177     -0.006753
      8.45071      2.12447     12.90117        -0.001031     -0.014989      0.006921
     10.56419     21.13667     12.88480         0.000016     -0.003480     -0.005327
      8.43762      4.21663     15.14007         0.014739      0.009846      0.110766
     10.56248      6.33495     14.94167        -0.007353      0.010379      0.009402
      8.44644      6.32918     12.89161        -0.010533     -0.001868     -0.003666
     10.55147      4.21860     12.88898        -0.003616     -0.009308     -0.003865
      8.43662      8.46688     14.99690        -0.003037     -0.012970      0.004732
     10.55890     10.58924     15.01734         0.013195     -0.001355      0.025374
      8.45537     10.57584     12.88665        -0.013801      0.007649     -0.015189
     10.56510      8.46589     12.87536        -0.006404     -0.005437     -0.003644
      8.44399     12.68771     15.02635         0.015431      0.001745     -0.014033
     10.56494     14.80509     15.02982         0.000958     -0.004369     -0.013963
      8.45565     14.79685     12.88668        -0.001815      0.003643     -0.001608
     10.57727     12.68524     12.89904        -0.011209      0.014954      0.001713
      8.45016     16.91402     15.02462         0.006447     -0.008712     -0.026252
     10.56554     19.02437     15.02486         0.002106      0.000137     -0.033479
      8.45327     19.02443     12.88516        -0.003136     -0.003073     -0.007861
     10.56941     16.91065     12.88610        -0.001569      0.000367     -0.002476
     12.68223     21.13261     15.02303         0.002110      0.003148     -0.022448
     14.80077      2.10134     15.02166        -0.001612      0.003901     -0.009701
     12.68095      2.10758     12.88177         0.006112     -0.012469     -0.005803
     14.79850     21.13586     12.88479         0.003700     -0.008315     -0.004951
     12.68143      4.20190     14.98110        -0.011350     -0.006026      0.020907
     14.80158      6.32793     14.96157         0.006971     -0.002536      0.011952
     12.68284      6.33281     12.86817        -0.000025     -0.001393     -0.005845
     14.80356      4.21750     12.88373         0.006422     -0.008512     -0.012165
     12.68741      8.45018     14.95259         0.006315      0.018853      0.006777
     14.80141     10.59444     15.02608        -0.008901      0.010161      0.021857
     12.68315     10.58727     12.89841        -0.000979      0.012329     -0.004383
     14.80232      8.46466     12.88466         0.003155      0.001277     -0.016112
     12.67873     12.72588     15.08822        -0.011214      0.009447      0.131015
     14.79719     14.80510     15.03123         0.001595     -0.003929     -0.017604
     12.68234     14.79162     12.89576         0.000358      0.014031      0.005750
     14.78658     12.68517     12.90185         0.012680      0.015458      0.000166
     12.68184     16.92094     15.02587         0.001989     -0.020063     -0.024021
     14.79953     19.02438     15.02530        -0.002313     -0.000554     -0.037126
     12.68212     19.02472     12.88471        -0.000436     -0.004205     -0.007811
     14.79543     16.91037     12.88655         0.000886      0.000370     -0.003172
     16.91615     21.13308     15.02584        -0.005587      0.008043     -0.024071
     19.03153      2.10722     15.02837         0.000871      0.004512     -0.018445
     16.91534      2.11144     12.88818         0.005177     -0.009851     -0.005526
     19.02681     21.13697     12.88497         0.005228     -0.005078     -0.007095
     16.92802      4.21251     15.03292         0.008432     -0.005948      0.008569
     19.03476      6.33831     15.03267         0.002834     -0.009564     -0.002166
     16.91826      6.33987     12.88891         0.014195     -0.006959     -0.012247
     19.02757      4.22592     12.88802         0.011276     -0.006447     -0.001106
     16.92343      8.46336     15.01901         0.006454     -0.013345     -0.006284
     19.03079     10.57273     15.02958        -0.000816     -0.000742     -0.028691
     16.90834     10.57379     12.89284         0.014452      0.013037     -0.004084
     19.02533      8.45632     12.88968         0.014898      0.000291     -0.007605
     16.91879     12.68935     15.03043        -0.006838      0.004554     -0.017025
     19.02829     14.80130     15.02594        -0.004730     -0.002163     -0.033932
     16.90925     14.79630     12.88796         0.001105      0.005196     -0.003900
     19.02488     12.68448     12.88700         0.003342      0.004079     -0.005959
     16.91440     16.91369     15.02532        -0.002578     -0.003254     -0.033012
     19.02858     19.02349     15.02466        -0.001227      0.002790     -0.033391
     16.91202     19.02343     12.88494         0.001894     -0.003500     -0.008544
     19.02519     16.91069     12.88492         0.001380     -0.000556     -0.011976
      0.00000      0.00000     10.77222         0.007338     -0.003967      0.015535
      2.11389      2.11389     10.77222         0.014702      0.000330      0.023283
      0.00000      2.11389      8.65833         0.006429     -0.001481     -0.400595
      2.11389      0.00000      8.65833         0.007044     -0.000626     -0.399068
      0.00000      4.22777     10.77222         0.010153     -0.002097      0.021637
      2.11389      6.34166     10.77222         0.008428     -0.004883      0.024440
      0.00000      6.34166      8.65833         0.005297      0.001084     -0.401482
      2.11389      4.22777      8.65833         0.011167     -0.000859     -0.396552
      0.00000      8.45554     10.77222        -0.000402      0.001968      0.023141
      2.11389     10.56943     10.77222         0.000992      0.000879      0.018124
      0.00000     10.56943      8.65833        -0.002136      0.002282     -0.399911
      2.11389      8.45554      8.65833         0.005934     -0.000332     -0.400051
      0.00000     12.68331     10.77222        -0.006567      0.001703      0.019424
      2.11389     14.79720     10.77222         0.000971      0.000122      0.014552
      0.00000     14.79720      8.65833        -0.003089     -0.002318     -0.399423
      2.11389     12.68331      8.65833         0.003041     -0.000505     -0.400222
      0.00000     16.91108     10.77222        -0.001831     -0.004082      0.014525
      2.11389     19.02497     10.77222         0.005860     -0.000801      0.013811
      0.00000     19.02497      8.65833         0.001631     -0.003779     -0.400253
      2.11389     16.91108      8.65833         0.003476     -0.001986     -0.399921
      4.22777      0.00000     10.77222         0.010754      0.005934      0.023921
      6.34166      2.11389     10.77222         0.021173      0.022314      0.055806
      4.22777      2.11389      8.65833         0.009624      0.002399     -0.394856
      6.34166      0.00000      8.65833         0.006760      0.002201     -0.394562
      4.22777      4.22777     10.77222         0.039331     -0.004237      0.054804
      6.34166      6.34166     10.77222         0.006246     -0.028296      0.036034
      4.22777      6.34166      8.65833         0.009943     -0.003364     -0.396417
      6.34166      4.22777      8.65833         0.010599      0.000437     -0.388183
      4.22777      8.45554     10.77222         0.000393     -0.005174      0.017033
      6.34166     10.56943     10.77222         0.014484      0.004048      0.021462
      4.22777     10.56943      8.65833         0.009627     -0.000961     -0.398957
      6.34166      8.45554      8.65833         0.013419     -0.001223     -0.395262
      4.22777     12.68331     10.77222         0.006339      0.001367      0.016581
      6.34166     14.79720     10.77222         0.013653     -0.002689      0.022293
      4.22777     14.79720      8.65833         0.007899     -0.001894     -0.399158
      6.34166     12.68331      8.65833         0.014881     -0.002493     -0.395121
      4.22777     16.91108     10.77222         0.005872     -0.000159      0.014971
      6.34166     19.02497     10.77222         0.005503      0.003720      0.021654
      4.22777     19.02497      8.65833         0.006936     -0.000243     -0.398433
      6.34166     16.91108      8.65833         0.008816     -0.003100     -0.397121
      8.45554      0.00000     10.77222        -0.007803      0.029866      0.051256
     10.56943      2.11389     10.77222        -0.041123     -0.003173      0.026525
      8.45554      2.11389      8.65833        -0.000586      0.006439     -0.388511
     10.56943      0.00000      8.65833        -0.006318     -0.002661     -0.396764
      8.45554      4.22777     10.77222        -0.019884     -0.006329      0.012748
     10.56943      6.34166     10.77222        -0.044042     -0.008505     -0.004367
      8.45554      6.34166      8.65833         0.007985      0.000054     -0.385327
     10.56943      4.22777      8.65833        -0.008328      0.009226     -0.386283
      8.45554      8.45554     10.77222        -0.005039     -0.011664      0.023647
     10.56943     10.56943     10.77222         0.026855      0.049333      0.023523
      8.45554     10.56943      8.65833         0.016645     -0.000618     -0.386658
     10.56943      8.45554      8.65833         0.004579      0.007207     -0.381829
      8.45554     12.68331     10.77222         0.039019      0.002349      0.047138
     10.56943     14.79720     10.77222         0.022624     -0.026261      0.057066
      8.45554     14.79720      8.65833         0.012708     -0.007756     -0.391642
     10.56943     12.68331      8.65833         0.012531     -0.005495     -0.378271
      8.45554     16.91108     10.77222         0.008841     -0.009655      0.027259
     10.56943     19.02497     10.77222        -0.004859     -0.013939      0.023179
      8.45554     19.02497      8.65833         0.003386     -0.001964     -0.394110
     10.56943     16.91108      8.65833         0.004473     -0.012327     -0.391132
     12.68331      0.00000     10.77222        -0.012448     -0.021705      0.009720
     14.79720      2.11389     10.77222         0.000013     -0.019292     -0.000062
     12.68331      2.11389      8.65833        -0.011153      0.003341     -0.400165
     14.79720      0.00000      8.65833        -0.005709     -0.008928     -0.402431
     12.68331      4.22777     10.77222        -0.036059     -0.023486     -0.008139
     14.79720      6.34166     10.77222         0.014919      0.011191     -0.012308
     12.68331      6.34166      8.65833        -0.011998      0.012699     -0.388100
     14.79720      4.22777      8.65833        -0.012445      0.008200     -0.399658
     12.68331      8.45554     10.77222         0.001225      0.057285      0.008425
     14.79720     10.56943     10.77222        -0.032103      0.047019      0.040289
     12.68331     10.56943      8.65833        -0.004488      0.008068     -0.373236
     14.79720      8.45554      8.65833        -0.016287      0.014551     -0.388281
     12.68331     12.68331     10.77222        -0.003762      0.006262      0.044862
     14.79720     14.79720     10.77222        -0.027595     -0.028908      0.060428
     12.68331     14.79720      8.65833        -0.002050     -0.015193     -0.380570
     14.79720     12.68331      8.65833        -0.016430     -0.003582     -0.378656
     12.68331     16.91108     10.77222        -0.003870     -0.033662      0.046208
     14.79720     19.02497     10.77222        -0.006651     -0.021140      0.021792
     12.68331     19.02497      8.65833        -0.004479     -0.013470     -0.395636
     14.79720     16.91108      8.65833        -0.008628     -0.014640     -0.391831
     16.91108      0.00000     10.77222         0.002502     -0.010997      0.017702
     19.02497      2.11389     10.77222         0.007410     -0.004352      0.018715
     16.91108      2.11389      8.65833        -0.001730     -0.002118     -0.404036
     19.02497      0.00000      8.65833         0.000838     -0.005404     -0.401335
     16.91108      4.22777     10.77222         0.013722      0.000055      0.006145
     19.02497      6.34166     10.77222         0.009251      0.004072      0.015316
     16.91108      6.34166      8.65833        -0.008895      0.008580     -0.401292
     19.02497      4.22777      8.65833         0.001953      0.000729     -0.403058
     16.91108      8.45554     10.77222        -0.000282      0.021008      0.014813
     19.02497     10.56943     10.77222        -0.018712      0.005935      0.034686
     16.91108     10.56943      8.65833        -0.017412      0.007889     -0.390695
     19.02497      8.45554      8.65833        -0.005278      0.006888     -0.400776
     16.91108     12.68331     10.77222        -0.045636     -0.001781      0.060501
     19.02497     14.79720     10.77222        -0.014805     -0.005305      0.025575
     16.91108     14.79720      8.65833        -0.013099     -0.008406     -0.391897
     19.02497     12.68331      8.65833        -0.011880      0.000112     -0.395518
     16.91108     16.91108     10.77222        -0.012331     -0.016601      0.028008
     19.02497     19.02497     10.77222        -0.000888     -0.009376      0.016184
     16.91108     19.02497      8.65833        -0.004907     -0.010223     -0.398780
     19.02497     16.91108      8.65833        -0.005738     -0.006742     -0.398364
 -----------------------------------------------------------------------------------
    total drift:                               -0.225808      0.352264     -3.293202


--------------------------------------------------------------------------------------------------------



  FREE ENERGIE OF THE ION-ELECTRON SYSTEM (eV)
  ---------------------------------------------------
  free  energy   TOTEN  =     -2893.88369686 eV

  energy  without entropy=    -2893.88369686  energy(sigma->0) =    -2893.88369686
 


--------------------------------------------------------------------------------------------------------


    POTLOK:  cpu time     11.8557: real time     11.8627


--------------------------------------------------------------------------------------------------------


     LOOP+:  cpu time  75483.0393: real time  75514.1030
    4ORBIT:  cpu time      0.0000: real time      0.0000

 total amount of memory used by VASP MPI-rank0   573218. kBytes
=======================================================================

   base      :      30000. kBytes
   nonlr-proj:      99256. kBytes
   fftplans  :      12561. kBytes
   grid      :      11650. kBytes
   one-center:        419. kBytes
   HF        :        194. kBytes
   wavefun   :      41847. kBytes
   fock_wrk  :     377291. kBytes
 
  
  
 General timing and accounting informations for this job:
 ========================================================
  
                  Total CPU time used (sec):    75647.805
                            User time (sec):    75560.007
                          System time (sec):       87.798
                         Elapsed time (sec):    75681.461
  
                   Maximum memory used (kb):     2108728.
                   Average memory used (kb):          N/A
  
                          Minor page faults:      3882636
                          Major page faults:            0
                 Voluntary context switches:       758905
