 vasp.6.4.0 14Feb23 (build Dec 05 2023 14:15:48) complex                        
  
 executed on             LinuxIFC date 2023.12.11  11:57:29
 running  256 mpi-ranks, with    1 threads/rank, on   32 nodes
 distrk:  each k-point on  256 cores,    1 groups
 distr:  one band on NCORE=  16 cores,   16 groups


--------------------------------------------------------------------------------------------------------


 INCAR:
   SYSTEM = MgO-rocksalt
   ISMEAR = 0
   SIGMA = 0.05
   EDIFF = 1E-4
   ALGO = ALL
   ISTART = 0
   IBRION = -1
   NSW = 0
   ISYM = 0
   METAGGA = M06L
   ENCUT = 520
   PREC = Accurate
   LASPH = .TRUE.
   LREAL = Auto
   ISPIN = 1
   NELM = 20000
   NELMIN = 8
   NCORE = 16
   LWAVE = .FALSE.
   LCHARG = .FALSE.

 POTCAR:    PAW_PBE Cu 22Jun2005                  
 POTCAR:    PAW_PBE Cu 22Jun2005                  
   SHA256 =  0e71e558f37a4e8407882b4609ceaae59938afaad9ced71dfe8490308a0ab630 Cu/POTCAR             
   COPYR  = (c) Copyright 22Jun2005 Georg Kresse                                                    
   COPYR  = This file is part of the software VASP. Any use, copying, and all other rights are regul
   COPYR  = If you do not have a valid VASP license, you may not use, copy or distribute this file. 
   VRHFIN =Cu: d10 p1                                                                               
   LEXCH  = PE                                                                                      
   EATOM  =  1390.9808 eV,  102.2342 Ry                                                             
                                                                                                    
   TITEL  = PAW_PBE Cu 22Jun2005                                                                    
   LULTRA =        F    use ultrasoft PP ?                                                          
   IUNSCR =        1    unscreen: 0-lin 1-nonlin 2-no                                               
   RPACOR =    2.000    partial core radius                                                         
   POMASS =   63.546; ZVAL   =   11.000    mass and valenz                                          
   RCORE  =    2.300    outmost cutoff radius                                                       
   RWIGS  =    2.200; RWIGS  =    1.164    wigner-seitz radius (au A)                               
   ENMAX  =  295.446; ENMIN  =  221.585 eV                                                          
   ICORE  =        3    local potential                                                             
   LCOR   =        T    correct aug charges                                                         
   LPAW   =        T    paw PP                                                                      
   EAUG   =  586.980                                                                                
   DEXC   =    0.000                                                                                
   RMAX   =    2.344    core radius for proj-oper                                                   
   RAUG   =    1.300    factor for augmentation sphere                                              
   RDEP   =    2.302    radius for radial grids                                                     
   RDEPT  =    1.771    core radius for aug-charge                                                  
                                                                                                    
   Atomic configuration                                                                             
    9 entries                                                                                       
     n  l   j            E        occ.                                                              
     1  0  0.50     -8850.2468   2.0000                                                             
     2  0  0.50     -1062.3498   2.0000                                                             
     2  1  1.50      -916.8226   6.0000                                                             
     3  0  0.50      -114.6929   2.0000                                                             
     3  1  1.50       -72.1325   6.0000                                                             
     3  2  2.50        -5.0394  10.0000                                                             
     4  0  0.50        -4.6097   1.0000                                                             
     4  1  0.50        -4.0817   0.0000                                                             
     4  3  2.50        -1.3606   0.0000                                                             
   Description                                                                                      
     l       E           TYP  RCUT    TYP  RCUT                                                     
     2     -5.0393973     23  2.200                                                                 
     2     10.8846608     23  2.200                                                                 
     0     -4.6097109     23  2.200                                                                 
     0      8.2520465     23  2.200                                                                 
     1     -2.7211652     23  2.200                                                                 
     1     21.7055443     23  2.200                                                                 
     3      2.7211652     23  2.300                                                                 
  local pseudopotential read in
  partial core-charges read in
  partial kinetic energy density read in
  atomic valenz-charges read in
  non local Contribution for L=           2  read in
    real space projection operators read in
  non local Contribution for L=           2  read in
    real space projection operators read in
  non local Contribution for L=           0  read in
    real space projection operators read in
  non local Contribution for L=           0  read in
    real space projection operators read in
  non local Contribution for L=           1  read in
    real space projection operators read in
  non local Contribution for L=           1  read in
    real space projection operators read in
    PAW grid and wavefunctions read in
 
   number of l-projection  operators is LMAX  =           6
   number of lm-projection operators is LMMAX =          18
 
 -----------------------------------------------------------------------------
|                                                                             |
|               ----> ADVICE to this user running VASP <----                  |
|                                                                             |
|     You have a (more or less) 'small supercell' and for smaller cells       |
|     it is recommended to use the reciprocal-space projection scheme!        |
|     The real-space optimization is not efficient for small cells and it     |
|     is also less accurate ...                                               |
|     Therefore, set LREAL=.FALSE. in the INCAR file.                         |
|                                                                             |
 -----------------------------------------------------------------------------

 Optimization of the real space projectors (new method)

 maximal supplied QI-value         = 16.25
 optimisation between [QCUT,QGAM] = [ 11.54, 23.24] = [ 37.28,151.24] Ry 
 Optimized for a Real-space Cutoff    1.53 Angstroem

   l    n(q)    QCUT    max X(q) W(low)/X(q) W(high)/X(q)  e(spline) 
   2     10    11.539     4.610    0.96E-04    0.13E-03    0.19E-06
   2     10    11.539     8.522    0.16E-03    0.21E-03    0.28E-06
   0     11    11.539    51.609    0.45E-04    0.31E-04    0.11E-06
   0     11    11.539    27.747    0.39E-04    0.29E-04    0.10E-06
   1     10    11.539    20.408    0.70E-05    0.38E-04    0.18E-06
   1     10    11.539    13.425    0.66E-05    0.34E-04    0.17E-06
  PAW_PBE Cu 22Jun2005                  :
 energy of atom  1       EATOM=-1390.9808
 kinetic energy error for atom=    0.0037 (will be added to EATOM!!)
 
 
 POSCAR: cu4
  positions in direct lattice
  velocities in cartesian coordinates

 METAGGA = M06L                                        LMAXTAU =  6    LMIXTAU =  F

 exchange correlation table for  LEXCH =        8
   RHO(1)=    0.500       N(1)  =     2000
   RHO(2)=  100.500       N(2)  =     4000
 


--------------------------------------------------------------------------------------------------------


 ion  position               nearest neighbor table
   1  0.976  0.095  1.000-   4 2.25   3 2.37
   2  0.964  0.876  0.958-   3 2.24
   3  0.994  0.978  0.993-   2 2.24   4 2.37   1 2.37
   4  0.067  0.052  0.049-   1 2.25   3 2.37
 

IMPORTANT INFORMATION: All symmetrisations will be switched off!
NOSYMM: (Re-)initialisation of all symmetry stuff for point group C_1.


----------------------------------------------------------------------------------------

                                     Primitive cell                                     

  volume of cell :    8000.0000

  direct lattice vectors                    reciprocal lattice vectors
    20.000000000  0.000000000  0.000000000     0.050000000  0.000000000  0.000000000
     0.000000000 20.000000000  0.000000000     0.000000000  0.050000000  0.000000000
     0.000000000  0.000000000 20.000000000     0.000000000  0.000000000  0.050000000

  length of vectors
    20.000000000 20.000000000 20.000000000     0.050000000  0.050000000  0.050000000

  position of ions in fractional coordinates (direct lattice)
     0.975619681  0.094779489  0.999736271
     0.963888833  0.875687963  0.958332930
     0.993590534  0.977911889  0.992596102
     0.066900952  0.051620659  0.049334697

  ion indices of the primitive-cell ions
   primitive index   ion index
                 1           1
                 2           2
                 3           3
                 4           4

----------------------------------------------------------------------------------------

 
 
 KPOINTS: KPOINTS created by Atomic Simulation Env

Automatic generation of k-mesh.
 Grid dimensions read from file:
 generate k-points for:    1    1    1

 Generating k-lattice:

  Cartesian coordinates                     Fractional coordinates (reciprocal lattice)
     0.050000000  0.000000000  0.000000000     1.000000000  0.000000000  0.000000000
     0.000000000  0.050000000  0.000000000     0.000000000  1.000000000  0.000000000
     0.000000000  0.000000000  0.050000000     0.000000000  0.000000000  1.000000000

  Length of vectors
     0.050000000  0.050000000  0.050000000

  Shift w.r.t. Gamma in fractional coordinates (k-lattice)
     0.000000000  0.000000000  0.000000000

 
 Subroutine IBZKPT returns following result:
 ===========================================
 
 Found      1 irreducible k-points:
 
 Following reciprocal coordinates:
            Coordinates               Weight
  0.000000  0.000000  0.000000      1.000000
 
 Following cartesian coordinates:
            Coordinates               Weight
  0.000000  0.000000  0.000000      1.000000
 


--------------------------------------------------------------------------------------------------------




 Dimension of arrays:
   k-points           NKPTS =      1   k-points in BZ     NKDIM =      1   number of bands    NBANDS=     32
   number of dos      NEDOS =    301   number of ions     NIONS =      4
   non local maximal  LDIM  =      6   non local SUM 2l+1 LMDIM =     18
   total plane-waves  NPLWV = ******
   max r-space proj   IRMAX =   6426   max aug-charges    IRDMAX=  12418
   dimension x,y,z NGX =   150 NGY =  150 NGZ =  150
   dimension x,y,z NGXF=   300 NGYF=  300 NGZF=  300
   support grid    NGXF=   300 NGYF=  300 NGZF=  300
   ions per type =               4
   NGX,Y,Z   is equivalent  to a cutoff of  12.47, 12.47, 12.47 a.u.
   NGXF,Y,Z  is equivalent  to a cutoff of  24.94, 24.94, 24.94 a.u.

 SYSTEM =  MgO-rocksalt                            
 POSCAR =  cu4                                     

 Startparameter for this run:
   NWRITE =      2    write-flag & timer
   PREC   = accura    normal or accurate (medium, high low for compatibility)
   ISTART =      0    job   : 0-new  1-cont  2-samecut
   ICHARG =      2    charge: 1-file 2-atom 10-const
   ISPIN  =      1    spin polarized calculation?
   LNONCOLLINEAR =      F non collinear calculations
   LSORBIT =      F    spin-orbit coupling
   INIWAV =      1    electr: 0-lowe 1-rand  2-diag
   LASPH  =      T    aspherical Exc in radial PAW
 Electronic Relaxation 1
   ENCUT  =  520.0 eV  38.22 Ry    6.18 a.u.  37.19 37.19 37.19*2*pi/ulx,y,z
   ENINI  =  520.0     initial cutoff
   ENAUG  =  587.0 eV  augmentation charge cutoff
   NELM   =  20000;   NELMIN=  8; NELMDL= -5     # of ELM steps 
   EDIFF  = 0.1E-03   stopping-criterion for ELM
   LREAL  =      T    real-space projection
   NLSPLINE    = F    spline interpolate recip. space projectors
   LCOMPAT=      F    compatible to vasp.4.4
   GGA_COMPAT  = T    GGA compatible to vasp.4.4-vasp.4.6
   LMAXPAW     = -100 max onsite density
   LMAXMIX     =    2 max onsite mixed and CHGCAR
   VOSKOWN=      0    Vosko Wilk Nusair interpolation
   ROPT   =   -0.00025
 Ionic relaxation
   EDIFFG = 0.1E-02   stopping-criterion for IOM
   NSW    =      0    number of steps for IOM
   NBLOCK =      1;   KBLOCK =      1    inner block; outer block 
   IBRION =     -1    ionic relax: 0-MD 1-quasi-New 2-CG
   NFREE  =      0    steps in history (QN), initial steepest desc. (CG)
   ISIF   =      2    stress and relaxation
   IWAVPR =     10    prediction:  0-non 1-charg 2-wave 3-comb
   ISYM   =      0    0-nonsym 1-usesym 2-fastsym
   LCORR  =      T    Harris-Foulkes like correction to forces

   POTIM  = 0.5000    time-step for ionic-motion
   TEIN   =    0.0    initial temperature
   TEBEG  =    0.0;   TEEND  =   0.0 temperature during run
   SMASS  =  -3.00    Nose mass-parameter (am)
   estimated Nose-frequenzy (Omega)   =  0.10E-29 period in steps = 0.13E+47 mass=  -0.914E-26a.u.
   SCALEE = 1.0000    scale energy and forces
   NPACO  =    256;   APACO  = 10.0  distance and # of slots for P.C.
   PSTRESS=    0.0 pullay stress

  Mass of Ions in am
   POMASS =  63.55
  Ionic Valenz
   ZVAL   =  11.00
  Atomic Wigner-Seitz radii
   RWIGS  =  -1.00
  virtual crystal weights 
   VCA    =   1.00
   NELECT =      44.0000    total number of electrons
   NUPDOWN=      -1.0000    fix difference up-down

 DOS related values:
   EMIN   =  10.00;   EMAX   =-10.00  energy-range for DOS
   EFERMI =   0.00;   METHOD = LEGACY      
   ISMEAR =     0;   SIGMA  =   0.05  broadening in eV -4-tet -1-fermi 0-gaus

 Electronic relaxation 2 (details)
   IALGO  =     58    algorithm
   LDIAG  =      T    sub-space diagonalisation (order eigenvalues)
   LSUBROT=      F    optimize rotation matrix (better conditioning)
   TURBO    =      0    0=normal 1=particle mesh
   IRESTART =      0    0=no restart 2=restart with 2 vectors
   NREBOOT  =      0    no. of reboots
   NMIN     =      0    reboot dimension
   EREF     =   0.00    reference energy to select bands
   IMIX   =      4    mixing-type and parameters
     AMIX     =   0.40;   BMIX     =  1.00
     AMIX_MAG =   1.60;   BMIX_MAG =  1.00
     AMIN     =   0.10
     WC   =   100.;   INIMIX=   1;  MIXPRE=   1;  MAXMIX= -45

 Intra band minimization:
   WEIMIN = 0.0000     energy-eigenvalue tresh-hold
   EBREAK =  0.78E-06  absolut break condition
   DEPER  =   0.30     relativ break condition  

   TIME   =   0.40     timestep for ELM

  volume/ion in A,a.u.               =    2000.00     13496.67
  Fermi-wavevector in a.u.,A,eV,Ry     =   0.288976  0.546086  1.136187  0.083507
  Thomas-Fermi vector in A             =   1.146265
 
 Write flags
   LWAVE        =      F    write WAVECAR
   LDOWNSAMPLE  =      F    k-point downsampling of WAVECAR
   LCHARG       =      F    write CHGCAR
   LVTOT        =      F    write LOCPOT, total local potential
   LVHAR        =      F    write LOCPOT, Hartree potential only
   LELF         =      F    write electronic localiz. function (ELF)
   LORBIT       =      0    0 simple, 1 ext, 2 COOP (PROOUT), +10 PAW based schemes


 Dipole corrections
   LMONO  =      F    monopole corrections only (constant potential shift)
   LDIPOL =      F    correct potential (dipole corrections)
   IDIPOL =      0    1-x, 2-y, 3-z, 4-all directions 
   EPSILON=  1.0000000 bulk dielectric constant

 Exchange correlation treatment:
   GGA     =    --    GGA type
   LEXCH   =     8    internal setting for exchange type
   LIBXC   =     F    Libxc                    
   VOSKOWN =     0    Vosko Wilk Nusair interpolation
   LHFCALC =     F    Hartree Fock is set to
   LHFONE  =     F    Hartree Fock one center treatment
   AEXX    =    0.0000 exact exchange contribution

 Linear response parameters
   LEPSILON=     F    determine dielectric tensor
   LRPA    =     F    only Hartree local field effects (RPA)
   LNABLA  =     F    use nabla operator in PAW spheres
   LVEL    =     F    velocity operator in full k-point grid
   CSHIFT  =0.1000    complex shift for real part using Kramers Kronig
   OMEGAMAX=  -1.0    maximum frequency
   DEG_THRESHOLD= 0.2000000E-02 threshold for treating states as degnerate
   RTIME   =   -0.100 relaxation time in fs
  (WPLASMAI=    0.000 imaginary part of plasma frequency in eV, 0.658/RTIME)
   DFIELD  = 0.0000000 0.0000000 0.0000000 field for delta impulse in time
 
  Optional k-point grid parameters
   LKPOINTS_OPT  =     F    use optional k-point grid
   KPOINTS_OPT_MODE=     1    mode for optional k-point grid
 
 Orbital magnetization related:
   ORBITALMAG=     F  switch on orbital magnetization
   LCHIMAG   =     F  perturbation theory with respect to B field
   DQ        =  0.001000  dq finite difference perturbation B field
   LLRAUG    =     F  two centre corrections for induced B field
   LBONE     =     F  B-component reconstruction in AE one-centre
   LVGVCALC  =     T  calculate vGv susceptibility
   LVGVAPPL  =     F  apply vGv susceptibility instead of pGv for G=0

 Random number generation:
   RANDOM_GENERATOR = DEFAULT
   PCG_SEED         = not used


--------------------------------------------------------------------------------------------------------


 Static calculation
 charge density and potential will be updated during run
 non-spin polarized calculation
 Conjugate gradient for all bands (Freysoldt, et al. PRB 79, 241103 (2009))
 preconditioned conjugated gradient                                        
 perform sub-space diagonalisation
    before iterative eigenvector-optimisation
 modified Broyden-mixing scheme, WC =      100.0
 initial mixing is a Kerker type mixing with AMIX =  0.4000 and BMIX =      1.0000
 Hartree-type preconditioning will be used
 using additional bands           10
 real space projection scheme for non local part
 use partial core corrections
 no Harris-corrections to forces 
 use gradient corrections 
 use of overlap-Matrix (Vanderbilt PP)
 Gauss-broadening in eV      SIGMA  =   0.05


--------------------------------------------------------------------------------------------------------


  energy-cutoff  :      520.00
  volume of cell :     8000.00
      direct lattice vectors                 reciprocal lattice vectors
    20.000000000  0.000000000  0.000000000     0.050000000  0.000000000  0.000000000
     0.000000000 20.000000000  0.000000000     0.000000000  0.050000000  0.000000000
     0.000000000  0.000000000 20.000000000     0.000000000  0.000000000  0.050000000

  length of vectors
    20.000000000 20.000000000 20.000000000     0.050000000  0.050000000  0.050000000


 
 k-points in units of 2pi/SCALE and weight: KPOINTS created by Atomic Simulation Env
   0.00000000  0.00000000  0.00000000       1.000
 
 k-points in reciprocal lattice and weights: KPOINTS created by Atomic Simulation Env
   0.00000000  0.00000000  0.00000000       1.000
 
 position of ions in fractional coordinates (direct lattice) 
   0.97561968  0.09477949  0.99973627
   0.96388883  0.87568796  0.95833293
   0.99359053  0.97791189  0.99259610
   0.06690095  0.05162066  0.04933470
 
 position of ions in cartesian coordinates  (Angst):
  19.51239361  1.89558978 19.99472542
  19.27777666 17.51375926 19.16665860
  19.87181069 19.55823778 19.85192203
   1.33801904  1.03241318  0.98669395
 


--------------------------------------------------------------------------------------------------------


 k-point   1 :   0.0000 0.0000 0.0000  plane waves:  215503

 maximum and minimum number of plane-waves per node :     13480    13461

 maximum number of plane-waves:    215503
 maximum index in each direction: 
   IXMAX=   37   IYMAX=   37   IZMAX=   37
   IXMIN=  -37   IYMIN=  -37   IZMIN=  -37


 real space projection operators:
  total allocation   :       3480.75 KBytes
  max/ min on nodes  :        364.78        106.88


 parallel 3D FFT for wavefunctions:
    minimum data exchange during FFTs selected (reduces bandwidth)
 parallel 3D FFT for charge:
    minimum data exchange during FFTs selected (reduces bandwidth)


 total amount of memory used by VASP MPI-rank0    70683. kBytes
=======================================================================

   base      :      30000. kBytes
   nonlr-proj:        884. kBytes
   fftplans  :      12137. kBytes
   grid      :      26351. kBytes
   one-center:         15. kBytes
   wavefun   :       1296. kBytes
 
     INWAV:  cpu time      0.0001: real time      0.0001
 Broyden mixing: mesh for mixing (old mesh)
   NGX = 75   NGY = 75   NGZ = 75
  (NGX  =300   NGY  =300   NGZ  =300)
  gives a total of 421875 points

 initial charge density was supplied:
 charge density of overlapping atoms calculated
 number of electron      44.0000000 magnetization 
 keeping initial charge density in first step


--------------------------------------------------------------------------------------------------------


 Maximum index for non-local projection operator          754
 Maximum index for augmentation-charges          619 (set IRDMAX)


--------------------------------------------------------------------------------------------------------


 First call to EWALD:  gamma=   0.089
 Maximum number of real-space cells 3x 3x 3
 Maximum number of reciprocal cells 3x 3x 3

    FEWALD:  cpu time      0.0100: real time      0.0111


--------------------------------------- Ionic step        1  -------------------------------------------




--------------------------------------- Iteration      1(   1)  ---------------------------------------


    POTLOK:  cpu time      0.8997: real time      0.9048
    SETDIJ:  cpu time      4.4279: real time      4.4315
    TRIAL :  cpu time      1.3065: real time      1.4099
    CORREC:  cpu time      0.0078: real time      0.0078
    --------------------------------------------
      LOOP:  cpu time      6.6439: real time      6.7568

 eigenvalue-minimisations  :   128
 total energy-change (2. order) :-0.3569902E+11  (-0.3076487E+11)
 number of electron      44.0000000 magnetization 
 augmentation part       44.0000000 magnetization 

 Free energy of the ion-electron system (eV)
  ---------------------------------------------------
  alpha Z        PSCENC =         1.46265607
  Ewald energy   TEWEN  =      1855.67042458
  -Hartree energ DENC   =     -6934.20233903
  -exchange      EXHF   =         0.00000000
  -V(xc)+E(xc)   XCENC  =     -3525.06067889
  PAW double counting   =      5002.02783025    -5329.44132456
  entropy T*S    EENTRO =         0.00000000
  eigenvalues    EBANDS = ******************
  atomic energy  EATOM  =      5563.90821598
  ---------------------------------------------------
  free energy    TOTEN  = ****************** eV

  energy without entropy =******************  energy(sigma->0) =******************


--------------------------------------------------------------------------------------------------------




--------------------------------------- Iteration      1(   2)  ---------------------------------------


    TRIAL :  cpu time      1.0897: real time      1.0907
    CORREC:  cpu time      0.0003: real time      0.0003
    --------------------------------------------
      LOOP:  cpu time      1.1048: real time      1.1059

 eigenvalue-minimisations  :   128
 total energy-change (2. order) :-0.4010105E+11  (-0.3997323E+11)
 number of electron      44.0000000 magnetization 
 augmentation part       44.0000000 magnetization 

 Free energy of the ion-electron system (eV)
  ---------------------------------------------------
  alpha Z        PSCENC =         1.46265607
  Ewald energy   TEWEN  =      1855.67042458
  -Hartree energ DENC   =     -6934.20233903
  -exchange      EXHF   =         0.00000000
  -V(xc)+E(xc)   XCENC  =     -3525.06067889
  PAW double counting   =      5002.02783025    -5329.44132456
  entropy T*S    EENTRO =         0.00000000
  eigenvalues    EBANDS = ******************
  atomic energy  EATOM  =      5563.90821598
  ---------------------------------------------------
  free energy    TOTEN  = ****************** eV

  energy without entropy =******************  energy(sigma->0) =******************


--------------------------------------------------------------------------------------------------------




--------------------------------------- Iteration      1(   3)  ---------------------------------------


    TRIAL :  cpu time      1.0869: real time      1.0859
    CORREC:  cpu time      0.0003: real time      0.0003
    --------------------------------------------
      LOOP:  cpu time      1.0890: real time      1.0918

 eigenvalue-minimisations  :   128
 total energy-change (2. order) :-0.8030294E+10  (-0.7854973E+10)
 number of electron      44.0000000 magnetization 
 augmentation part       44.0000000 magnetization 

 Free energy of the ion-electron system (eV)
  ---------------------------------------------------
  alpha Z        PSCENC =         1.46265607
  Ewald energy   TEWEN  =      1855.67042458
  -Hartree energ DENC   =     -6934.20233903
  -exchange      EXHF   =         0.00000000
  -V(xc)+E(xc)   XCENC  =     -3525.06067889
  PAW double counting   =      5002.02783025    -5329.44132456
  entropy T*S    EENTRO =         0.00000000
  eigenvalues    EBANDS = ******************
  atomic energy  EATOM  =      5563.90821598
  ---------------------------------------------------
  free energy    TOTEN  = ****************** eV

  energy without entropy =******************  energy(sigma->0) =******************


--------------------------------------------------------------------------------------------------------




--------------------------------------- Iteration      1(   4)  ---------------------------------------


    TRIAL :  cpu time      1.0876: real time      1.0875
    CORREC:  cpu time      0.0004: real time      0.0004
    --------------------------------------------
      LOOP:  cpu time      1.0905: real time      1.0945

 eigenvalue-minimisations  :   128
 total energy-change (2. order) :-0.1282456E+10  (-0.1262038E+10)
 number of electron      44.0000000 magnetization 
 augmentation part       44.0000000 magnetization 

 Free energy of the ion-electron system (eV)
  ---------------------------------------------------
  alpha Z        PSCENC =         1.46265607
  Ewald energy   TEWEN  =      1855.67042458
  -Hartree energ DENC   =     -6934.20233903
  -exchange      EXHF   =         0.00000000
  -V(xc)+E(xc)   XCENC  =     -3525.06067889
  PAW double counting   =      5002.02783025    -5329.44132456
  entropy T*S    EENTRO =         0.00000000
  eigenvalues    EBANDS = ******************
  atomic energy  EATOM  =      5563.90821598
  ---------------------------------------------------
  free energy    TOTEN  = ****************** eV

  energy without entropy =******************  energy(sigma->0) =******************


--------------------------------------------------------------------------------------------------------




--------------------------------------- Iteration      1(   5)  ---------------------------------------


    TRIAL :  cpu time      1.0914: real time      1.0907
    CORREC:  cpu time      0.0003: real time      0.0003
    CHARGE:  cpu time      0.1709: real time      0.1709
    --------------------------------------------
      LOOP:  cpu time      1.2642: real time      1.2676

 eigenvalue-minimisations  :   128
 total energy-change (2. order) :-0.2270360E+09  (-0.2239707E+09)
 number of electron      44.0000000 magnetization 
 augmentation part        0.0000763 magnetization 

 Free energy of the ion-electron system (eV)
  ---------------------------------------------------
  alpha Z        PSCENC =         1.46265607
  Ewald energy   TEWEN  =      1855.67042458
  -Hartree energ DENC   =     -6934.20233903
  -exchange      EXHF   =         0.00000000
  -V(xc)+E(xc)   XCENC  =     -3525.06067889
  PAW double counting   =      5002.02783025    -5329.44132456
  entropy T*S    EENTRO =         0.00000000
  eigenvalues    EBANDS = ******************
  atomic energy  EATOM  =      5563.90821598
  ---------------------------------------------------
  free energy    TOTEN  = ****************** eV

  energy without entropy =******************  energy(sigma->0) =******************


--------------------------------------------------------------------------------------------------------




--------------------------------------- Iteration      1(   6)  ---------------------------------------


    POTLOK:  cpu time      2.3240: real time      2.3261
    SETDIJ:  cpu time      4.8107: real time      4.8145
    TRIAL :  cpu time      0.6916: real time      0.6956
    CORREC:  cpu time      7.5068: real time      7.5127
    CHARGE:  cpu time      0.1459: real time      0.1459
    --------------------------------------------
      LOOP:  cpu time     15.4814: real time     15.5010

 eigenvalue-minimisations  :     0
 total energy-change (2. order) : 0.8533988E+11  ( 0.1120315E+03)
 number of electron      44.0000000 magnetization 
 augmentation part        0.0733191 magnetization 

 Free energy of the ion-electron system (eV)
  ---------------------------------------------------
  alpha Z        PSCENC =         1.46265607
  Ewald energy   TEWEN  =      1855.67042458
  -Hartree energ DENC   =     -7302.35986682
  -exchange      EXHF   =         0.00000000
  -V(xc)+E(xc)   XCENC  =       177.73974238
  PAW double counting   =        36.18777228      -32.63839859
  entropy T*S    EENTRO =         0.00000000
  eigenvalues    EBANDS =     24897.76379677
  atomic energy  EATOM  =      5563.90821598
  ---------------------------------------------------
  free energy    TOTEN  =     25197.73434264 eV

  energy without entropy =    25197.73434264  energy(sigma->0) =    25197.73434264


--------------------------------------------------------------------------------------------------------




--------------------------------------- Iteration      1(   7)  ---------------------------------------


    POTLOK:  cpu time      2.3166: real time      2.3185
    SETDIJ:  cpu time      4.8935: real time      4.8973
    TRIAL :  cpu time      0.6515: real time      0.6521
    CORREC:  cpu time      7.5753: real time      7.5822
    CHARGE:  cpu time      0.1451: real time      0.1451
    --------------------------------------------
      LOOP:  cpu time     15.5851: real time     15.6028

 eigenvalue-minimisations  :     0
 total energy-change (2. order) :-0.8711814E+03  (-0.3172135E+05)
 number of electron      44.0000007 magnetization 
 augmentation part       13.2152539 magnetization 

 Free energy of the ion-electron system (eV)
  ---------------------------------------------------
  alpha Z        PSCENC =         1.46265607
  Ewald energy   TEWEN  =      1855.67042458
  -Hartree energ DENC   =     -7101.18884742
  -exchange      EXHF   =         0.00000000
  -V(xc)+E(xc)   XCENC  =       174.97177104
  PAW double counting   =        36.92697532      -33.40725396
  entropy T*S    EENTRO =         0.00000000
  eigenvalues    EBANDS =     23828.20900457
  atomic energy  EATOM  =      5563.90821598
  ---------------------------------------------------
  free energy    TOTEN  =     24326.55294619 eV

  energy without entropy =    24326.55294619  energy(sigma->0) =    24326.55294619


--------------------------------------------------------------------------------------------------------




--------------------------------------- Iteration      1(   8)  ---------------------------------------


    POTLOK:  cpu time      2.3135: real time      2.3148
    SETDIJ:  cpu time      4.8926: real time      4.8971
    TRIAL :  cpu time      0.6477: real time      0.6486
    CORREC:  cpu time      7.5652: real time      7.5712
    CHARGE:  cpu time      0.1460: real time      0.1459
    --------------------------------------------
      LOOP:  cpu time     15.5681: real time     15.5848

 eigenvalue-minimisations  :     0
 total energy-change (2. order) :-0.2129100E+05  (-0.6749989E+04)
 number of electron      43.9999997 magnetization 
 augmentation part       19.2847549 magnetization 

 Free energy of the ion-electron system (eV)
  ---------------------------------------------------
  alpha Z        PSCENC =         1.46265607
  Ewald energy   TEWEN  =      1855.67042458
  -Hartree energ DENC   =     -3539.68329483
  -exchange      EXHF   =         0.00000000
  -V(xc)+E(xc)   XCENC  =        82.89434364
  PAW double counting   =      1449.77359734    -1648.77631018
  entropy T*S    EENTRO =         0.00000000
  eigenvalues    EBANDS =      -729.69536887
  atomic energy  EATOM  =      5563.90821598
  ---------------------------------------------------
  free energy    TOTEN  =      3035.55426373 eV

  energy without entropy =     3035.55426373  energy(sigma->0) =     3035.55426373


--------------------------------------------------------------------------------------------------------




--------------------------------------- Iteration      1(   9)  ---------------------------------------


    POTLOK:  cpu time      2.3082: real time      2.3104
    SETDIJ:  cpu time      4.8907: real time      4.8944
    TRIAL :  cpu time      0.6443: real time      0.6452
    CORREC:  cpu time      7.5728: real time      7.5784
    CHARGE:  cpu time      0.1469: real time      0.1477
    --------------------------------------------
      LOOP:  cpu time     15.5657: real time     15.5837

 eigenvalue-minimisations  :     0
 total energy-change (2. order) :-0.4870621E+02  (-0.6153702E+04)
 number of electron      43.9999996 magnetization 
 augmentation part       14.3276538 magnetization 

 Free energy of the ion-electron system (eV)
  ---------------------------------------------------
  alpha Z        PSCENC =         1.46265607
  Ewald energy   TEWEN  =      1855.67042458
  -Hartree energ DENC   =     -4172.77391639
  -exchange      EXHF   =         0.00000000
  -V(xc)+E(xc)   XCENC  =        11.83734289
  PAW double counting   =      2373.04921150    -2630.82079099
  entropy T*S    EENTRO =         0.00000000
  eigenvalues    EBANDS =       -15.48509461
  atomic energy  EATOM  =      5563.90821598
  ---------------------------------------------------
  free energy    TOTEN  =      2986.84804902 eV

  energy without entropy =     2986.84804902  energy(sigma->0) =     2986.84804902


--------------------------------------------------------------------------------------------------------




--------------------------------------- Iteration      1(  10)  ---------------------------------------


    POTLOK:  cpu time      2.3102: real time      2.3117
    SETDIJ:  cpu time      4.8944: real time      4.8989
    TRIAL :  cpu time      0.6503: real time      0.6502
    CORREC:  cpu time      7.5763: real time      7.5828
    CHARGE:  cpu time      0.1456: real time      0.1455
    --------------------------------------------
      LOOP:  cpu time     15.5799: real time     15.5962

 eigenvalue-minimisations  :     0
 total energy-change (2. order) : 0.2105048E+04  (-0.9635144E+04)
 number of electron      43.9999995 magnetization 
 augmentation part       12.5905805 magnetization 

 Free energy of the ion-electron system (eV)
  ---------------------------------------------------
  alpha Z        PSCENC =         1.46265607
  Ewald energy   TEWEN  =      1855.67042458
  -Hartree energ DENC   =     -3740.85223725
  -exchange      EXHF   =         0.00000000
  -V(xc)+E(xc)   XCENC  =        57.09091324
  PAW double counting   =      1446.61907943    -1645.60835438
  entropy T*S    EENTRO =         0.00000000
  eigenvalues    EBANDS =      1553.60513579
  atomic energy  EATOM  =      5563.90821598
  ---------------------------------------------------
  free energy    TOTEN  =      5091.89583345 eV

  energy without entropy =     5091.89583345  energy(sigma->0) =     5091.89583345


--------------------------------------------------------------------------------------------------------




--------------------------------------- Iteration      1(  11)  ---------------------------------------


    POTLOK:  cpu time      2.3121: real time      2.3143
    SETDIJ:  cpu time      4.8893: real time      4.8934
    TRIAL :  cpu time      0.6472: real time      0.6482
    CORREC:  cpu time      7.5637: real time      7.5699
    CHARGE:  cpu time      0.1440: real time      0.1441
    --------------------------------------------
      LOOP:  cpu time     15.5597: real time     15.5771

 eigenvalue-minimisations  :     0
 total energy-change (2. order) : 0.2767373E+03  (-0.6459840E+04)
 number of electron      43.9999999 magnetization 
 augmentation part        8.2329208 magnetization 

 Free energy of the ion-electron system (eV)
  ---------------------------------------------------
  alpha Z        PSCENC =         1.46265607
  Ewald energy   TEWEN  =      1855.67042458
  -Hartree energ DENC   =     -3170.44930128
  -exchange      EXHF   =         0.00000000
  -V(xc)+E(xc)   XCENC  =        43.23097149
  PAW double counting   =      1201.08474073    -1377.72865095
  entropy T*S    EENTRO =         0.00000000
  eigenvalues    EBANDS =      1251.45411054
  atomic energy  EATOM  =      5563.90821598
  ---------------------------------------------------
  free energy    TOTEN  =      5368.63316717 eV

  energy without entropy =     5368.63316717  energy(sigma->0) =     5368.63316717


--------------------------------------------------------------------------------------------------------




--------------------------------------- Iteration      1(  12)  ---------------------------------------


    POTLOK:  cpu time      2.3117: real time      2.3141
    SETDIJ:  cpu time      4.8872: real time      4.8910
    TRIAL :  cpu time      0.6482: real time      0.6491
    CORREC:  cpu time      7.5669: real time      7.5738
    CHARGE:  cpu time      0.1452: real time      0.1452
    --------------------------------------------
      LOOP:  cpu time     15.5616: real time     15.5795

 eigenvalue-minimisations  :     0
 total energy-change (2. order) : 0.1413861E+04  (-0.8499085E+04)
 number of electron      43.9999999 magnetization 
 augmentation part        4.8843896 magnetization 

 Free energy of the ion-electron system (eV)
  ---------------------------------------------------
  alpha Z        PSCENC =         1.46265607
  Ewald energy   TEWEN  =      1855.67042458
  -Hartree energ DENC   =     -2655.72274469
  -exchange      EXHF   =         0.00000000
  -V(xc)+E(xc)   XCENC  =        26.71380036
  PAW double counting   =       608.13922498     -704.99503897
  entropy T*S    EENTRO =         0.00000000
  eigenvalues    EBANDS =      2087.31715182
  atomic energy  EATOM  =      5563.90821598
  ---------------------------------------------------
  free energy    TOTEN  =      6782.49369013 eV

  energy without entropy =     6782.49369013  energy(sigma->0) =     6782.49369013


--------------------------------------------------------------------------------------------------------




--------------------------------------- Iteration      1(  13)  ---------------------------------------


    POTLOK:  cpu time      2.3095: real time      2.3110
    SETDIJ:  cpu time      4.8904: real time      4.8951
    TRIAL :  cpu time      0.6409: real time      0.6418
    CORREC:  cpu time      7.5667: real time      7.5727
    CHARGE:  cpu time      0.1459: real time      0.1461
    --------------------------------------------
      LOOP:  cpu time     15.5557: real time     15.5731

 eigenvalue-minimisations  :     0
 total energy-change (2. order) : 0.1501496E+04  (-0.4701215E+04)
 number of electron      43.9999999 magnetization 
 augmentation part        4.4536322 magnetization 

 Free energy of the ion-electron system (eV)
  ---------------------------------------------------
  alpha Z        PSCENC =         1.46265607
  Ewald energy   TEWEN  =      1855.67042458
  -Hartree energ DENC   =     -2450.23306890
  -exchange      EXHF   =         0.00000000
  -V(xc)+E(xc)   XCENC  =        10.42567012
  PAW double counting   =       305.96523130     -351.69698569
  entropy T*S    EENTRO =         0.00000000
  eigenvalues    EBANDS =      3348.48724686
  atomic energy  EATOM  =      5563.90821598
  ---------------------------------------------------
  free energy    TOTEN  =      8283.98939032 eV

  energy without entropy =     8283.98939032  energy(sigma->0) =     8283.98939032


--------------------------------------------------------------------------------------------------------




--------------------------------------- Iteration      1(  14)  ---------------------------------------


    POTLOK:  cpu time      2.3143: real time      2.3159
    SETDIJ:  cpu time      4.8845: real time      4.8884
    TRIAL :  cpu time      0.6395: real time      0.6400
    CORREC:  cpu time      7.5832: real time      7.5954
    CHARGE:  cpu time      0.1461: real time      0.1468
    --------------------------------------------
      LOOP:  cpu time     15.5708: real time     15.5934

 eigenvalue-minimisations  :     0
 total energy-change (2. order) : 0.4734237E+03  (-0.6685402E+04)
 number of electron      44.0000000 magnetization 
 augmentation part        2.6222740 magnetization 

 Free energy of the ion-electron system (eV)
  ---------------------------------------------------
  alpha Z        PSCENC =         1.46265607
  Ewald energy   TEWEN  =      1855.67042458
  -Hartree energ DENC   =     -2348.91750323
  -exchange      EXHF   =         0.00000000
  -V(xc)+E(xc)   XCENC  =         4.05049094
  PAW double counting   =       225.13730029     -260.32645972
  entropy T*S    EENTRO =         0.00000000
  eigenvalues    EBANDS =      3716.42794489
  atomic energy  EATOM  =      5563.90821598
  ---------------------------------------------------
  free energy    TOTEN  =      8757.41306979 eV

  energy without entropy =     8757.41306979  energy(sigma->0) =     8757.41306979


--------------------------------------------------------------------------------------------------------




--------------------------------------- Iteration      1(  15)  ---------------------------------------


    POTLOK:  cpu time      2.3104: real time      2.3120
    SETDIJ:  cpu time      4.8959: real time      4.9005
    TRIAL :  cpu time      0.6469: real time      0.6469
    CORREC:  cpu time      7.5633: real time      7.5705
    CHARGE:  cpu time      0.1453: real time      0.1453
    --------------------------------------------
      LOOP:  cpu time     15.5640: real time     15.5826

 eigenvalue-minimisations  :     0
 total energy-change (2. order) : 0.1278679E+04  (-0.2704062E+04)
 number of electron      43.9999999 magnetization 
 augmentation part        5.4962756 magnetization 

 Free energy of the ion-electron system (eV)
  ---------------------------------------------------
  alpha Z        PSCENC =         1.46265607
  Ewald energy   TEWEN  =      1855.67042458
  -Hartree energ DENC   =     -2354.98658146
  -exchange      EXHF   =         0.00000000
  -V(xc)+E(xc)   XCENC  =        -3.19437329
  PAW double counting   =       131.53699378     -147.08752897
  entropy T*S    EENTRO =         0.00000000
  eigenvalues    EBANDS =      4988.78229982
  atomic energy  EATOM  =      5563.90821598
  ---------------------------------------------------
  free energy    TOTEN  =     10036.09210650 eV

  energy without entropy =    10036.09210650  energy(sigma->0) =    10036.09210650


--------------------------------------------------------------------------------------------------------




--------------------------------------- Iteration      1(  16)  ---------------------------------------


    POTLOK:  cpu time      2.3102: real time      2.3124
    SETDIJ:  cpu time      4.8941: real time      4.8980
    TRIAL :  cpu time      0.6446: real time      0.6455
    CORREC:  cpu time      7.5706: real time      7.5766
    CHARGE:  cpu time      0.1455: real time      0.1455
    --------------------------------------------
      LOOP:  cpu time     15.5684: real time     15.5849

 eigenvalue-minimisations  :     0
 total energy-change (2. order) :-0.1029373E+04  (-0.6555208E+04)
 number of electron      44.0000000 magnetization 
 augmentation part        2.9425651 magnetization 

 Free energy of the ion-electron system (eV)
  ---------------------------------------------------
  alpha Z        PSCENC =         1.46265607
  Ewald energy   TEWEN  =      1855.67042458
  -Hartree energ DENC   =     -2411.30935062
  -exchange      EXHF   =         0.00000000
  -V(xc)+E(xc)   XCENC  =         6.12424587
  PAW double counting   =       245.08070579     -289.77509444
  entropy T*S    EENTRO =         0.00000000
  eigenvalues    EBANDS =      4035.55720289
  atomic energy  EATOM  =      5563.90821598
  ---------------------------------------------------
  free energy    TOTEN  =      9006.71900611 eV

  energy without entropy =     9006.71900611  energy(sigma->0) =     9006.71900611


--------------------------------------------------------------------------------------------------------




--------------------------------------- Iteration      1(  17)  ---------------------------------------


    POTLOK:  cpu time      2.3077: real time      2.3101
    SETDIJ:  cpu time      4.8935: real time      4.8973
    TRIAL :  cpu time      0.6478: real time      0.6485
    CORREC:  cpu time      7.5680: real time      7.5751
    CHARGE:  cpu time      0.1473: real time      0.1472
    --------------------------------------------
      LOOP:  cpu time     15.5663: real time     15.5847

 eigenvalue-minimisations  :     0
 total energy-change (2. order) : 0.1833207E+04  (-0.4011988E+04)
 number of electron      44.0000000 magnetization 
 augmentation part        1.2325512 magnetization 

 Free energy of the ion-electron system (eV)
  ---------------------------------------------------
  alpha Z        PSCENC =         1.46265607
  Ewald energy   TEWEN  =      1855.67042458
  -Hartree energ DENC   =     -2442.89739773
  -exchange      EXHF   =         0.00000000
  -V(xc)+E(xc)   XCENC  =        -0.45910501
  PAW double counting   =        98.72582866     -114.32484195
  entropy T*S    EENTRO =         0.00000000
  eigenvalues    EBANDS =      5877.83992909
  atomic energy  EATOM  =      5563.90821598
  ---------------------------------------------------
  free energy    TOTEN  =     10839.92570969 eV

  energy without entropy =    10839.92570969  energy(sigma->0) =    10839.92570969


--------------------------------------------------------------------------------------------------------




--------------------------------------- Iteration      1(  18)  ---------------------------------------


    POTLOK:  cpu time      2.3108: real time      2.3123
    SETDIJ:  cpu time      4.8975: real time      4.9023
    TRIAL :  cpu time      0.6464: real time      0.6471
    CORREC:  cpu time      7.5806: real time      7.5867
    CHARGE:  cpu time      0.1462: real time      0.1463
    --------------------------------------------
      LOOP:  cpu time     15.5865: real time     15.6038

 eigenvalue-minimisations  :     0
 total energy-change (2. order) : 0.9979263E+03  (-0.2178427E+04)
 number of electron      43.9999997 magnetization 
 augmentation part        8.5487155 magnetization 

 Free energy of the ion-electron system (eV)
  ---------------------------------------------------
  alpha Z        PSCENC =         1.46265607
  Ewald energy   TEWEN  =      1855.67042458
  -Hartree energ DENC   =     -2472.77469727
  -exchange      EXHF   =         0.00000000
  -V(xc)+E(xc)   XCENC  =        -4.24806544
  PAW double counting   =        56.89633542      -58.96437418
  entropy T*S    EENTRO =         0.00000000
  eigenvalues    EBANDS =      6895.90155706
  atomic energy  EATOM  =      5563.90821598
  ---------------------------------------------------
  free energy    TOTEN  =     11837.85205222 eV

  energy without entropy =    11837.85205222  energy(sigma->0) =    11837.85205222


--------------------------------------------------------------------------------------------------------




--------------------------------------- Iteration      1(  19)  ---------------------------------------


    POTLOK:  cpu time      2.3094: real time      2.3116
    SETDIJ:  cpu time      4.8943: real time      4.8979
    TRIAL :  cpu time      0.6467: real time      0.6474
    CORREC:  cpu time      7.5718: real time      7.5780
    CHARGE:  cpu time      0.1473: real time      0.1482
    --------------------------------------------
      LOOP:  cpu time     15.5731: real time     15.5905

 eigenvalue-minimisations  :     0
 total energy-change (2. order) :-0.2555264E+04  (-0.3990506E+04)
 number of electron      44.0000000 magnetization 
 augmentation part        2.0265263 magnetization 

 Free energy of the ion-electron system (eV)
  ---------------------------------------------------
  alpha Z        PSCENC =         1.46265607
  Ewald energy   TEWEN  =      1855.67042458
  -Hartree energ DENC   =     -2781.28283307
  -exchange      EXHF   =         0.00000000
  -V(xc)+E(xc)   XCENC  =        26.65679049
  PAW double counting   =       424.21573958     -513.32904821
  entropy T*S    EENTRO =         0.00000000
  eigenvalues    EBANDS =      4705.28644344
  atomic energy  EATOM  =      5563.90821598
  ---------------------------------------------------
  free energy    TOTEN  =      9282.58838886 eV

  energy without entropy =     9282.58838886  energy(sigma->0) =     9282.58838886


--------------------------------------------------------------------------------------------------------




--------------------------------------- Iteration      1(  20)  ---------------------------------------


    POTLOK:  cpu time      2.3133: real time      2.3147
    SETDIJ:  cpu time      4.8865: real time      4.8909
    TRIAL :  cpu time      0.6475: real time      0.6475
    CORREC:  cpu time      7.5633: real time      7.5704
    CHARGE:  cpu time      0.1463: real time      0.1463
    --------------------------------------------
      LOOP:  cpu time     15.5595: real time     15.5763

 eigenvalue-minimisations  :     0
 total energy-change (2. order) : 0.3194580E+04  (-0.3280042E+04)
 number of electron      44.0000000 magnetization 
 augmentation part        0.8982984 magnetization 

 Free energy of the ion-electron system (eV)
  ---------------------------------------------------
  alpha Z        PSCENC =         1.46265607
  Ewald energy   TEWEN  =      1855.67042458
  -Hartree energ DENC   =     -2749.09406450
  -exchange      EXHF   =         0.00000000
  -V(xc)+E(xc)   XCENC  =         5.85024783
  PAW double counting   =        61.76353551      -68.36606475
  entropy T*S    EENTRO =         0.00000000
  eigenvalues    EBANDS =      7805.97349465
  atomic energy  EATOM  =      5563.90821598
  ---------------------------------------------------
  free energy    TOTEN  =     12477.16844538 eV

  energy without entropy =    12477.16844538  energy(sigma->0) =    12477.16844538


--------------------------------------------------------------------------------------------------------




--------------------------------------- Iteration      1(  21)  ---------------------------------------


    POTLOK:  cpu time      2.3092: real time      2.3114
    SETDIJ:  cpu time      4.8979: real time      4.9018
    TRIAL :  cpu time      0.6425: real time      0.6433
    CORREC:  cpu time      7.5619: real time      7.5680
    CHARGE:  cpu time      0.1456: real time      0.1456
    --------------------------------------------
      LOOP:  cpu time     15.5601: real time     15.5777

 eigenvalue-minimisations  :     0
 total energy-change (2. order) : 0.2758322E+03  (-0.1938621E+04)
 number of electron      43.9999997 magnetization 
 augmentation part       10.1715947 magnetization 

 Free energy of the ion-electron system (eV)
  ---------------------------------------------------
  alpha Z        PSCENC =         1.46265607
  Ewald energy   TEWEN  =      1855.67042458
  -Hartree energ DENC   =     -3509.11962670
  -exchange      EXHF   =         0.00000000
  -V(xc)+E(xc)   XCENC  =        37.52315342
  PAW double counting   =        43.09441589      -42.21584537
  entropy T*S    EENTRO =         0.00000000
  eigenvalues    EBANDS =      8802.67729272
  atomic energy  EATOM  =      5563.90821598
  ---------------------------------------------------
  free energy    TOTEN  =     12753.00068660 eV

  energy without entropy =    12753.00068660  energy(sigma->0) =    12753.00068660


--------------------------------------------------------------------------------------------------------




--------------------------------------- Iteration      1(  22)  ---------------------------------------


    POTLOK:  cpu time      2.3125: real time      2.3148
    SETDIJ:  cpu time      4.8987: real time      4.9025
    TRIAL :  cpu time      0.6487: real time      0.6495
    CORREC:  cpu time      7.5835: real time      7.5907
    CHARGE:  cpu time      0.1473: real time      0.1472
    --------------------------------------------
      LOOP:  cpu time     15.5950: real time     15.6123

 eigenvalue-minimisations  :     0
 total energy-change (2. order) :-0.3160626E+04  (-0.7079485E+04)
 number of electron      43.9999997 magnetization 
 augmentation part       23.2767853 magnetization 

 Free energy of the ion-electron system (eV)
  ---------------------------------------------------
  alpha Z        PSCENC =         1.46265607
  Ewald energy   TEWEN  =      1855.67042458
  -Hartree energ DENC   =     -3786.63744294
  -exchange      EXHF   =         0.00000000
  -V(xc)+E(xc)   XCENC  =        78.67336332
  PAW double counting   =       512.08001609     -627.03258143
  entropy T*S    EENTRO =         0.00000000
  eigenvalues    EBANDS =      5994.24969643
  atomic energy  EATOM  =      5563.90821598
  ---------------------------------------------------
  free energy    TOTEN  =      9592.37434811 eV

  energy without entropy =     9592.37434811  energy(sigma->0) =     9592.37434811


--------------------------------------------------------------------------------------------------------




--------------------------------------- Iteration      1(  23)  ---------------------------------------


    POTLOK:  cpu time      2.3145: real time      2.3158
    SETDIJ:  cpu time      4.8953: real time      4.9000
    TRIAL :  cpu time      0.6444: real time      0.6452
    CORREC:  cpu time      7.5760: real time      7.5818
    CHARGE:  cpu time      0.1476: real time      0.1478
    --------------------------------------------
      LOOP:  cpu time     15.5836: real time     15.6002

 eigenvalue-minimisations  :     0
 total energy-change (2. order) :-0.6945545E+04  (-0.1709925E+04)
 number of electron      43.9999998 magnetization 
 augmentation part       25.6226554 magnetization 

 Free energy of the ion-electron system (eV)
  ---------------------------------------------------
  alpha Z        PSCENC =         1.46265607
  Ewald energy   TEWEN  =      1855.67042458
  -Hartree energ DENC   =     -4068.19895099
  -exchange      EXHF   =         0.00000000
  -V(xc)+E(xc)   XCENC  =       -42.49491672
  PAW double counting   =      2772.58537251    -3079.48573270
  entropy T*S    EENTRO =         0.00000000
  eigenvalues    EBANDS =      -356.61761356
  atomic energy  EATOM  =      5563.90821598
  ---------------------------------------------------
  free energy    TOTEN  =      2646.82945517 eV

  energy without entropy =     2646.82945517  energy(sigma->0) =     2646.82945517


--------------------------------------------------------------------------------------------------------




--------------------------------------- Iteration      1(  24)  ---------------------------------------


    POTLOK:  cpu time      2.3109: real time      2.3130
    SETDIJ:  cpu time      4.8978: real time      4.9016
    TRIAL :  cpu time      0.6435: real time      0.6443
    CORREC:  cpu time      7.5695: real time      7.5757
    CHARGE:  cpu time      0.1462: real time      0.1470
    --------------------------------------------
      LOOP:  cpu time     15.5711: real time     15.5886

 eigenvalue-minimisations  :     0
 total energy-change (2. order) :-0.1715863E+04  (-0.3246745E+03)
 number of electron      43.9999998 magnetization 
 augmentation part       27.2431184 magnetization 

 Free energy of the ion-electron system (eV)
  ---------------------------------------------------
  alpha Z        PSCENC =         1.46265607
  Ewald energy   TEWEN  =      1855.67042458
  -Hartree energ DENC   =     -4329.47962073
  -exchange      EXHF   =         0.00000000
  -V(xc)+E(xc)   XCENC  =       -41.58768406
  PAW double counting   =      3380.86781014    -3758.16318890
  entropy T*S    EENTRO =         0.00000000
  eigenvalues    EBANDS =     -1741.71180900
  atomic energy  EATOM  =      5563.90821598
  ---------------------------------------------------
  free energy    TOTEN  =       930.96680408 eV

  energy without entropy =      930.96680408  energy(sigma->0) =      930.96680408


--------------------------------------------------------------------------------------------------------




--------------------------------------- Iteration      1(  25)  ---------------------------------------


    POTLOK:  cpu time      2.3131: real time      2.3145
    SETDIJ:  cpu time      4.8989: real time      4.9037
    TRIAL :  cpu time      0.6448: real time      0.6448
    CORREC:  cpu time      7.5745: real time      7.5815
    CHARGE:  cpu time      0.1478: real time      0.1478
    --------------------------------------------
      LOOP:  cpu time     15.5824: real time     15.6005

 eigenvalue-minimisations  :     0
 total energy-change (2. order) :-0.3612828E+03  (-0.1956770E+03)
 number of electron      43.9999999 magnetization 
 augmentation part       26.0541271 magnetization 

 Free energy of the ion-electron system (eV)
  ---------------------------------------------------
  alpha Z        PSCENC =         1.46265607
  Ewald energy   TEWEN  =      1855.67042458
  -Hartree energ DENC   =     -4964.14370163
  -exchange      EXHF   =         0.00000000
  -V(xc)+E(xc)   XCENC  =       -30.18389927
  PAW double counting   =      3912.98516691    -4348.71315734
  entropy T*S    EENTRO =         0.00000000
  eigenvalues    EBANDS =     -1421.30171299
  atomic energy  EATOM  =      5563.90821598
  ---------------------------------------------------
  free energy    TOTEN  =       569.68399231 eV

  energy without entropy =      569.68399231  energy(sigma->0) =      569.68399231


--------------------------------------------------------------------------------------------------------




--------------------------------------- Iteration      1(  26)  ---------------------------------------


    POTLOK:  cpu time      2.3146: real time      2.3170
    SETDIJ:  cpu time      4.9035: real time      4.9072
    TRIAL :  cpu time      0.6474: real time      0.6483
    CORREC:  cpu time      7.5739: real time      7.5799
    CHARGE:  cpu time      0.1470: real time      0.1470
    --------------------------------------------
      LOOP:  cpu time     15.5886: real time     15.6055

 eigenvalue-minimisations  :     0
 total energy-change (2. order) :-0.2137355E+03  (-0.7213950E+02)
 number of electron      43.9999994 magnetization 
 augmentation part       23.7504415 magnetization 

 Free energy of the ion-electron system (eV)
  ---------------------------------------------------
  alpha Z        PSCENC =         1.46265607
  Ewald energy   TEWEN  =      1855.67042458
  -Hartree energ DENC   =     -5323.38901926
  -exchange      EXHF   =         0.00000000
  -V(xc)+E(xc)   XCENC  =        -5.73574001
  PAW double counting   =      3942.19890963    -4332.04355629
  entropy T*S    EENTRO =         0.00000000
  eigenvalues    EBANDS =     -1346.12343381
  atomic energy  EATOM  =      5563.90821598
  ---------------------------------------------------
  free energy    TOTEN  =       355.94845689 eV

  energy without entropy =      355.94845689  energy(sigma->0) =      355.94845689


--------------------------------------------------------------------------------------------------------




--------------------------------------- Iteration      1(  27)  ---------------------------------------


    POTLOK:  cpu time      2.3104: real time      2.3126
    SETDIJ:  cpu time      4.8982: real time      4.9030
    TRIAL :  cpu time      0.6460: real time      0.6459
    CORREC:  cpu time      7.5692: real time      7.5763
    CHARGE:  cpu time      0.1463: real time      0.1463
    --------------------------------------------
      LOOP:  cpu time     15.5779: real time     15.5921

 eigenvalue-minimisations  :     0
 total energy-change (2. order) : 0.1646173E+02  (-0.7696218E+02)
 number of electron      43.9999994 magnetization 
 augmentation part       23.1485304 magnetization 

 Free energy of the ion-electron system (eV)
  ---------------------------------------------------
  alpha Z        PSCENC =         1.46265607
  Ewald energy   TEWEN  =      1855.67042458
  -Hartree energ DENC   =     -5044.13246273
  -exchange      EXHF   =         0.00000000
  -V(xc)+E(xc)   XCENC  =        19.06547644
  PAW double counting   =      3481.10966586    -3800.11638890
  entropy T*S    EENTRO =         0.00000000
  eigenvalues    EBANDS =     -1704.55740451
  atomic energy  EATOM  =      5563.90821598
  ---------------------------------------------------
  free energy    TOTEN  =       372.41018279 eV

  energy without entropy =      372.41018279  energy(sigma->0) =      372.41018279


--------------------------------------------------------------------------------------------------------




--------------------------------------- Iteration      1(  28)  ---------------------------------------


    POTLOK:  cpu time      2.3082: real time      2.3096
    SETDIJ:  cpu time      4.8949: real time      4.8995
    TRIAL :  cpu time      0.6430: real time      0.6439
    CORREC:  cpu time      7.5674: real time      7.5734
    CHARGE:  cpu time      0.1457: real time      0.1457
    --------------------------------------------
      LOOP:  cpu time     15.5611: real time     15.5782

 eigenvalue-minimisations  :     0
 total energy-change (2. order) :-0.7995027E+02  (-0.3274713E+02)
 number of electron      43.9999995 magnetization 
 augmentation part       22.5764597 magnetization 

 Free energy of the ion-electron system (eV)
  ---------------------------------------------------
  alpha Z        PSCENC =         1.46265607
  Ewald energy   TEWEN  =      1855.67042458
  -Hartree energ DENC   =     -5335.29682194
  -exchange      EXHF   =         0.00000000
  -V(xc)+E(xc)   XCENC  =        35.60095571
  PAW double counting   =      3628.05714398    -3950.97727311
  entropy T*S    EENTRO =         0.00000000
  eigenvalues    EBANDS =     -1505.96539213
  atomic energy  EATOM  =      5563.90821598
  ---------------------------------------------------
  free energy    TOTEN  =       292.45990914 eV

  energy without entropy =      292.45990914  energy(sigma->0) =      292.45990914


--------------------------------------------------------------------------------------------------------




--------------------------------------- Iteration      1(  29)  ---------------------------------------


    POTLOK:  cpu time      2.3093: real time      2.3114
    SETDIJ:  cpu time      4.8993: real time      4.9033
    TRIAL :  cpu time      0.6445: real time      0.6452
    CORREC:  cpu time      7.5687: real time      7.5749
    CHARGE:  cpu time      0.1522: real time      0.1599
    --------------------------------------------
      LOOP:  cpu time     15.5772: real time     15.6023

 eigenvalue-minimisations  :     0
 total energy-change (2. order) :-0.3703830E+02  (-0.1532542E+02)
 number of electron      43.9999999 magnetization 
 augmentation part       24.8670276 magnetization 

 Free energy of the ion-electron system (eV)
  ---------------------------------------------------
  alpha Z        PSCENC =         1.46265607
  Ewald energy   TEWEN  =      1855.67042458
  -Hartree energ DENC   =     -5529.37179679
  -exchange      EXHF   =         0.00000000
  -V(xc)+E(xc)   XCENC  =        50.72780224
  PAW double counting   =      3730.01961777    -4055.97355066
  entropy T*S    EENTRO =         0.00000000
  eigenvalues    EBANDS =     -1361.02176244
  atomic energy  EATOM  =      5563.90821598
  ---------------------------------------------------
  free energy    TOTEN  =       255.42160675 eV

  energy without entropy =      255.42160675  energy(sigma->0) =      255.42160675


--------------------------------------------------------------------------------------------------------




--------------------------------------- Iteration      1(  30)  ---------------------------------------


    POTLOK:  cpu time      2.3155: real time      2.3167
    SETDIJ:  cpu time      4.8949: real time      4.8996
    TRIAL :  cpu time      0.6463: real time      0.6461
    CORREC:  cpu time      7.5686: real time      7.5757
    CHARGE:  cpu time      0.1475: real time      0.1475
    --------------------------------------------
      LOOP:  cpu time     15.5758: real time     15.5925

 eigenvalue-minimisations  :     0
 total energy-change (2. order) :-0.9197063E+02  (-0.2685589E+02)
 number of electron      43.9999999 magnetization 
 augmentation part       23.9062832 magnetization 

 Free energy of the ion-electron system (eV)
  ---------------------------------------------------
  alpha Z        PSCENC =         1.46265607
  Ewald energy   TEWEN  =      1855.67042458
  -Hartree energ DENC   =     -6198.13817231
  -exchange      EXHF   =         0.00000000
  -V(xc)+E(xc)   XCENC  =        47.19895136
  PAW double counting   =      4351.13081099    -4735.06529620
  entropy T*S    EENTRO =         0.00000000
  eigenvalues    EBANDS =      -722.71661164
  atomic energy  EATOM  =      5563.90821598
  ---------------------------------------------------
  free energy    TOTEN  =       163.45097883 eV

  energy without entropy =      163.45097883  energy(sigma->0) =      163.45097883


--------------------------------------------------------------------------------------------------------




--------------------------------------- Iteration      1(  31)  ---------------------------------------


    POTLOK:  cpu time      2.3108: real time      2.3129
    SETDIJ:  cpu time      4.8930: real time      4.8969
    TRIAL :  cpu time      0.6440: real time      0.6450
    CORREC:  cpu time      7.5728: real time      7.5790
    CHARGE:  cpu time      0.1461: real time      0.1461
    --------------------------------------------
      LOOP:  cpu time     15.5696: real time     15.5867

 eigenvalue-minimisations  :     0
 total energy-change (2. order) :-0.2574767E+02  (-0.4222969E+01)
 number of electron      43.9999999 magnetization 
 augmentation part       23.9090902 magnetization 

 Free energy of the ion-electron system (eV)
  ---------------------------------------------------
  alpha Z        PSCENC =         1.46265607
  Ewald energy   TEWEN  =      1855.67042458
  -Hartree energ DENC   =     -5980.06802577
  -exchange      EXHF   =         0.00000000
  -V(xc)+E(xc)   XCENC  =        58.27084778
  PAW double counting   =      4141.82237626    -4480.63472252
  entropy T*S    EENTRO =         0.00000000
  eigenvalues    EBANDS =     -1022.72846196
  atomic energy  EATOM  =      5563.90821598
  ---------------------------------------------------
  free energy    TOTEN  =       137.70331041 eV

  energy without entropy =      137.70331041  energy(sigma->0) =      137.70331041


--------------------------------------------------------------------------------------------------------




--------------------------------------- Iteration      1(  32)  ---------------------------------------


    POTLOK:  cpu time      2.3101: real time      2.3125
    SETDIJ:  cpu time      4.8933: real time      4.8971
    TRIAL :  cpu time      0.6429: real time      0.6438
    CORREC:  cpu time      7.5691: real time      7.5758
    CHARGE:  cpu time      0.1473: real time      0.1472
    --------------------------------------------
      LOOP:  cpu time     15.5659: real time     15.5839

 eigenvalue-minimisations  :     0
 total energy-change (2. order) :-0.5035309E+01  (-0.2228162E+01)
 number of electron      43.9999999 magnetization 
 augmentation part       23.9799373 magnetization 

 Free energy of the ion-electron system (eV)
  ---------------------------------------------------
  alpha Z        PSCENC =         1.46265607
  Ewald energy   TEWEN  =      1855.67042458
  -Hartree energ DENC   =     -5981.82054497
  -exchange      EXHF   =         0.00000000
  -V(xc)+E(xc)   XCENC  =        59.32867186
  PAW double counting   =      4155.09337748    -4495.78871299
  entropy T*S    EENTRO =         0.00000000
  eigenvalues    EBANDS =     -1025.18608610
  atomic energy  EATOM  =      5563.90821598
  ---------------------------------------------------
  free energy    TOTEN  =       132.66800191 eV

  energy without entropy =      132.66800191  energy(sigma->0) =      132.66800191


--------------------------------------------------------------------------------------------------------




--------------------------------------- Iteration      1(  33)  ---------------------------------------


    POTLOK:  cpu time      2.3114: real time      2.3129
    SETDIJ:  cpu time      4.8939: real time      4.8985
    TRIAL :  cpu time      0.6421: real time      0.6430
    CORREC:  cpu time     30.2960: real time     30.3214
    CHARGE:  cpu time      0.1463: real time      0.1471
    --------------------------------------------
      LOOP:  cpu time     38.2930: real time     38.3304

 eigenvalue-minimisations  :     0
 total energy-change (2. order) :-0.2696915E+01  (-0.2137461E+01)
 number of electron      43.9999995 magnetization 
 augmentation part       21.3147332 magnetization 

 Free energy of the ion-electron system (eV)
  ---------------------------------------------------
  alpha Z        PSCENC =         1.46265607
  Ewald energy   TEWEN  =      1855.67042458
  -Hartree energ DENC   =     -6018.11678955
  -exchange      EXHF   =         0.00000000
  -V(xc)+E(xc)   XCENC  =        59.49487312
  PAW double counting   =      4189.48105734    -4536.32611403
  entropy T*S    EENTRO =         0.00000000
  eigenvalues    EBANDS =      -985.60323658
  atomic energy  EATOM  =      5563.90821598
  ---------------------------------------------------
  free energy    TOTEN  =       129.97108692 eV

  energy without entropy =      129.97108692  energy(sigma->0) =      129.97108692


--------------------------------------------------------------------------------------------------------




--------------------------------------- Iteration      1(  34)  ---------------------------------------


    POTLOK:  cpu time      2.3094: real time      2.3110
    SETDIJ:  cpu time      4.9075: real time      4.9121
    TRIAL :  cpu time      0.6482: real time      0.6481
    CORREC:  cpu time      7.5599: real time      7.5670
    CHARGE:  cpu time      0.1464: real time      0.1465
    --------------------------------------------
      LOOP:  cpu time     15.5755: real time     15.5931

 eigenvalue-minimisations  :     0
 total energy-change (2. order) : 0.9591192E+02  (-0.1483898E+02)
 number of electron      43.9999995 magnetization 
 augmentation part       21.7532063 magnetization 

 Free energy of the ion-electron system (eV)
  ---------------------------------------------------
  alpha Z        PSCENC =         1.46265607
  Ewald energy   TEWEN  =      1855.67042458
  -Hartree energ DENC   =     -5562.13929881
  -exchange      EXHF   =         0.00000000
  -V(xc)+E(xc)   XCENC  =        80.43162132
  PAW double counting   =      3781.34657921    -4108.13915478
  entropy T*S    EENTRO =         0.00000000
  eigenvalues    EBANDS =     -1386.65803229
  atomic energy  EATOM  =      5563.90821598
  ---------------------------------------------------
  free energy    TOTEN  =       225.88301128 eV

  energy without entropy =      225.88301128  energy(sigma->0) =      225.88301128


--------------------------------------------------------------------------------------------------------




--------------------------------------- Iteration      1(  35)  ---------------------------------------


    POTLOK:  cpu time      2.3097: real time      2.3118
    SETDIJ:  cpu time      4.9114: real time      4.9149
    TRIAL :  cpu time      0.6418: real time      0.6427
    CORREC:  cpu time      7.5623: real time      7.5683
    CHARGE:  cpu time      0.1472: real time      0.1472
    --------------------------------------------
      LOOP:  cpu time     15.5748: real time     15.5923

 eigenvalue-minimisations  :     0
 total energy-change (2. order) :-0.1443643E+02  (-0.4890928E+01)
 number of electron      43.9999995 magnetization 
 augmentation part       21.7919609 magnetization 

 Free energy of the ion-electron system (eV)
  ---------------------------------------------------
  alpha Z        PSCENC =         1.46265607
  Ewald energy   TEWEN  =      1855.67042458
  -Hartree energ DENC   =     -5734.47390958
  -exchange      EXHF   =         0.00000000
  -V(xc)+E(xc)   XCENC  =        74.29016432
  PAW double counting   =      3899.76575729    -4250.96746957
  entropy T*S    EENTRO =         0.00000000
  eigenvalues    EBANDS =     -1198.20926020
  atomic energy  EATOM  =      5563.90821598
  ---------------------------------------------------
  free energy    TOTEN  =       211.44657889 eV

  energy without entropy =      211.44657889  energy(sigma->0) =      211.44657889


--------------------------------------------------------------------------------------------------------




--------------------------------------- Iteration      1(  36)  ---------------------------------------


    POTLOK:  cpu time      2.3147: real time      2.3169
    SETDIJ:  cpu time      4.9199: real time      4.9243
    TRIAL :  cpu time      0.6491: real time      0.6490
    CORREC:  cpu time      7.5059: real time      7.5129
    CHARGE:  cpu time      0.1446: real time      0.1445
    --------------------------------------------
      LOOP:  cpu time     15.5365: real time     15.5547

 eigenvalue-minimisations  :     0
 total energy-change (2. order) :-0.4744735E+01  ( 0.2993339E+01)
 number of electron      43.9999995 magnetization 
 augmentation part       21.8138060 magnetization 

 Free energy of the ion-electron system (eV)
  ---------------------------------------------------
  alpha Z        PSCENC =         1.46265607
  Ewald energy   TEWEN  =      1855.67042458
  -Hartree energ DENC   =     -5818.75291273
  -exchange      EXHF   =         0.00000000
  -V(xc)+E(xc)   XCENC  =        74.67936860
  PAW double counting   =      3938.52905503    -4298.09942428
  entropy T*S    EENTRO =         0.00000000
  eigenvalues    EBANDS =     -1110.69553889
  atomic energy  EATOM  =      5563.90821598
  ---------------------------------------------------
  free energy    TOTEN  =       206.70184436 eV

  energy without entropy =      206.70184436  energy(sigma->0) =      206.70184436


--------------------------------------------------------------------------------------------------------




--------------------------------------- Iteration      1(  37)  ---------------------------------------


    POTLOK:  cpu time      2.3114: real time      2.3128
    SETDIJ:  cpu time      4.9133: real time      4.9181
    TRIAL :  cpu time      0.6455: real time      0.6464
    CORREC:  cpu time      7.5117: real time      7.5176
    CHARGE:  cpu time      0.1448: real time      0.1448
    --------------------------------------------
      LOOP:  cpu time     15.5355: real time     15.5522

 eigenvalue-minimisations  :     0
 total energy-change (2. order) :-0.5840901E+01  ( 0.7122492E+01)
 number of electron      43.9999995 magnetization 
 augmentation part       21.8949542 magnetization 

 Free energy of the ion-electron system (eV)
  ---------------------------------------------------
  alpha Z        PSCENC =         1.46265607
  Ewald energy   TEWEN  =      1855.67042458
  -Hartree energ DENC   =     -5856.10746707
  -exchange      EXHF   =         0.00000000
  -V(xc)+E(xc)   XCENC  =        76.00694642
  PAW double counting   =      3936.25822294    -4296.05866146
  entropy T*S    EENTRO =         0.00000000
  eigenvalues    EBANDS =     -1080.27939436
  atomic energy  EATOM  =      5563.90821598
  ---------------------------------------------------
  free energy    TOTEN  =       200.86094310 eV

  energy without entropy =      200.86094310  energy(sigma->0) =      200.86094310


--------------------------------------------------------------------------------------------------------




--------------------------------------- Iteration      1(  38)  ---------------------------------------


    POTLOK:  cpu time      2.3099: real time      2.3120
    SETDIJ:  cpu time      4.9104: real time      4.9143
    TRIAL :  cpu time      0.6426: real time      0.6434
    CORREC:  cpu time      7.5047: real time      7.5104
    CHARGE:  cpu time      0.1450: real time      0.1450
    --------------------------------------------
      LOOP:  cpu time     15.5163: real time     15.5330

 eigenvalue-minimisations  :     0
 total energy-change (2. order) :-0.4555208E+01  ( 0.2501224E+01)
 number of electron      43.9999995 magnetization 
 augmentation part       22.0653691 magnetization 

 Free energy of the ion-electron system (eV)
  ---------------------------------------------------
  alpha Z        PSCENC =         1.46265607
  Ewald energy   TEWEN  =      1855.67042458
  -Hartree energ DENC   =     -5858.81845536
  -exchange      EXHF   =         0.00000000
  -V(xc)+E(xc)   XCENC  =        75.64433024
  PAW double counting   =      3927.13202283    -4285.65296618
  entropy T*S    EENTRO =         0.00000000
  eigenvalues    EBANDS =     -1083.04049273
  atomic energy  EATOM  =      5563.90821598
  ---------------------------------------------------
  free energy    TOTEN  =       196.30573543 eV

  energy without entropy =      196.30573543  energy(sigma->0) =      196.30573543


--------------------------------------------------------------------------------------------------------




--------------------------------------- Iteration      1(  39)  ---------------------------------------


    POTLOK:  cpu time      2.3106: real time      2.3129
    SETDIJ:  cpu time      4.9082: real time      4.9127
[...]


    POTLOK:  cpu time      1.7183: real time      1.7197
    SETDIJ:  cpu time      4.7406: real time      4.7444
    TRIAL :  cpu time      0.6419: real time      0.6428
    CORREC:  cpu time      6.8256: real time      6.8316
    CHARGE:  cpu time      0.1476: real time      0.1476
    --------------------------------------------
      LOOP:  cpu time     14.0779: real time     14.0938

 eigenvalue-minimisations  :     0
 total energy-change (2. order) :-0.1817983E-03  (-0.1696387E-03)
 number of electron      43.9999996 magnetization 
 augmentation part       28.5521006 magnetization 

 Free energy of the ion-electron system (eV)
  ---------------------------------------------------
  alpha Z        PSCENC =         1.46265607
  Ewald energy   TEWEN  =      1855.67042458
  -Hartree energ DENC   =     -6945.42084647
  -exchange      EXHF   =         0.00000000
  -V(xc)+E(xc)   XCENC  =        78.22888557
  PAW double counting   =      5888.76685414    -6227.78137927
  entropy T*S    EENTRO =        -0.00000000
  eigenvalues    EBANDS =      -245.00869585
  atomic energy  EATOM  =      5563.90821598
  ---------------------------------------------------
  free energy    TOTEN  =       -30.17388525 eV

  energy without entropy =      -30.17388525  energy(sigma->0) =      -30.17388525


--------------------------------------------------------------------------------------------------------




--------------------------------------- Iteration      1( 256)  ---------------------------------------


    POTLOK:  cpu time      1.7300: real time      1.7312
    SETDIJ:  cpu time      4.7434: real time      4.7472
    TRIAL :  cpu time      0.6444: real time      0.6451
    CORREC:  cpu time      6.8181: real time      6.8229
    CHARGE:  cpu time      0.1469: real time      0.1477
    --------------------------------------------
      LOOP:  cpu time     14.0863: real time     14.1013

 eigenvalue-minimisations  :     0
 total energy-change (2. order) : 0.1270136E-03  (-0.1678874E-03)
 number of electron      43.9999996 magnetization 
 augmentation part       28.5520992 magnetization 

 Free energy of the ion-electron system (eV)
  ---------------------------------------------------
  alpha Z        PSCENC =         1.46265607
  Ewald energy   TEWEN  =      1855.67042458
  -Hartree energ DENC   =     -6945.41974361
  -exchange      EXHF   =         0.00000000
  -V(xc)+E(xc)   XCENC  =        78.22849555
  PAW double counting   =      5888.76880475    -6227.78325688
  entropy T*S    EENTRO =        -0.00000000
  eigenvalues    EBANDS =      -245.00935468
  atomic energy  EATOM  =      5563.90821598
  ---------------------------------------------------
  free energy    TOTEN  =       -30.17375824 eV

  energy without entropy =      -30.17375824  energy(sigma->0) =      -30.17375824


--------------------------------------------------------------------------------------------------------




--------------------------------------- Iteration      1( 257)  ---------------------------------------


    POTLOK:  cpu time      1.7191: real time      1.7201
    SETDIJ:  cpu time      4.7456: real time      4.7492
    TRIAL :  cpu time      0.6454: real time      0.6460
    CORREC:  cpu time      6.8165: real time      6.8211
    CHARGE:  cpu time      0.1478: real time      0.1479
    --------------------------------------------
      LOOP:  cpu time     14.0770: real time     14.0915

 eigenvalue-minimisations  :     0
 total energy-change (2. order) : 0.1748686E-05  (-0.2320176E-03)
 number of electron      43.9999996 magnetization 
 augmentation part       28.5520975 magnetization 

 Free energy of the ion-electron system (eV)
  ---------------------------------------------------
  alpha Z        PSCENC =         1.46265607
  Ewald energy   TEWEN  =      1855.67042458
  -Hartree energ DENC   =     -6945.41891156
  -exchange      EXHF   =         0.00000000
  -V(xc)+E(xc)   XCENC  =        78.22841663
  PAW double counting   =      5888.77077943    -6227.78517813
  entropy T*S    EENTRO =        -0.00000000
  eigenvalues    EBANDS =      -245.01015950
  atomic energy  EATOM  =      5563.90821598
  ---------------------------------------------------
  free energy    TOTEN  =       -30.17375649 eV

  energy without entropy =      -30.17375649  energy(sigma->0) =      -30.17375649


--------------------------------------------------------------------------------------------------------




--------------------------------------- Iteration      1( 258)  ---------------------------------------


    POTLOK:  cpu time      1.7189: real time      1.7200
    SETDIJ:  cpu time      4.7418: real time      4.7462
    TRIAL :  cpu time      0.6415: real time      0.6413
    CORREC:  cpu time      6.8206: real time      6.8259
    CHARGE:  cpu time      0.1488: real time      0.1488
    --------------------------------------------
      LOOP:  cpu time     14.0747: real time     14.0890

 eigenvalue-minimisations  :     0
 total energy-change (2. order) :-0.2589038E-04  (-0.2525741E-03)
 number of electron      43.9999996 magnetization 
 augmentation part       28.5520943 magnetization 

 Free energy of the ion-electron system (eV)
  ---------------------------------------------------
  alpha Z        PSCENC =         1.46265607
  Ewald energy   TEWEN  =      1855.67042458
  -Hartree energ DENC   =     -6945.41782224
  -exchange      EXHF   =         0.00000000
  -V(xc)+E(xc)   XCENC  =        78.22901551
  PAW double counting   =      5888.77331016    -6227.78763754
  entropy T*S    EENTRO =        -0.00000000
  eigenvalues    EBANDS =      -245.01194490
  atomic energy  EATOM  =      5563.90821598
  ---------------------------------------------------
  free energy    TOTEN  =       -30.17378238 eV

  energy without entropy =      -30.17378238  energy(sigma->0) =      -30.17378238


--------------------------------------------------------------------------------------------------------




--------------------------------------- Iteration      1( 259)  ---------------------------------------


    POTLOK:  cpu time      1.7207: real time      1.7218
    SETDIJ:  cpu time      4.7469: real time      4.7505
    TRIAL :  cpu time      0.6440: real time      0.6446
    CORREC:  cpu time      6.8139: real time      6.8194
    CHARGE:  cpu time      0.1468: real time      0.1468
    --------------------------------------------
      LOOP:  cpu time     14.0760: real time     14.0906

 eigenvalue-minimisations  :     0
 total energy-change (2. order) :-0.1420119E-03  (-0.1267444E-03)
 number of electron      43.9999996 magnetization 
 augmentation part       28.5520934 magnetization 

 Free energy of the ion-electron system (eV)
  ---------------------------------------------------
  alpha Z        PSCENC =         1.46265607
  Ewald energy   TEWEN  =      1855.67042458
  -Hartree energ DENC   =     -6945.41625235
  -exchange      EXHF   =         0.00000000
  -V(xc)+E(xc)   XCENC  =        78.22884834
  PAW double counting   =      5888.77630655    -6227.79052839
  entropy T*S    EENTRO =        -0.00000000
  eigenvalues    EBANDS =      -245.01359518
  atomic energy  EATOM  =      5563.90821598
  ---------------------------------------------------
  free energy    TOTEN  =       -30.17392439 eV

  energy without entropy =      -30.17392439  energy(sigma->0) =      -30.17392439


--------------------------------------------------------------------------------------------------------




--------------------------------------- Iteration      1( 260)  ---------------------------------------


    POTLOK:  cpu time      1.7216: real time      1.7227
    SETDIJ:  cpu time      4.7464: real time      4.7502
    TRIAL :  cpu time      0.6431: real time      0.6438
    CORREC:  cpu time      6.8193: real time      6.8246
    EDDIAG:  cpu time      0.2149: real time      0.2140
    CHARGE:  cpu time      0.1542: real time      0.1542
    --------------------------------------------
      LOOP:  cpu time     14.3027: real time     14.3170

 eigenvalue-minimisations  :     0
 total energy-change (2. order) : 0.9107606E-04  (-0.9080270E-04)
 number of electron      43.9999996 magnetization 
 augmentation part       28.5520926 magnetization 

 Free energy of the ion-electron system (eV)
  ---------------------------------------------------
  alpha Z        PSCENC =         1.46265607
  Ewald energy   TEWEN  =      1855.67042458
  -Hartree energ DENC   =     -6945.41566061
  -exchange      EXHF   =         0.00000000
  -V(xc)+E(xc)   XCENC  =        78.22899715
  PAW double counting   =      5888.77785902    -6227.79204350
  entropy T*S    EENTRO =        -0.00000000
  eigenvalues    EBANDS =      -245.01428201
  atomic energy  EATOM  =      5563.90821598
  ---------------------------------------------------
  free energy    TOTEN  =       -30.17383332 eV

  energy without entropy =      -30.17383332  energy(sigma->0) =      -30.17383332


--------------------------------------------------------------------------------------------------------


  average scaling for gradient   0.0065


 average (electrostatic) potential at core
  the test charge radii are     0.9430
  (the norm of the test charge is              1.0000)
       1 -79.9429       2 -78.7748       3 -79.7223       4 -79.9437
 
 
 
 E-fermi :  -4.1737     XC(G=0):  -1.1218     alpha+bet : -0.0793

 Fermi energy:        -4.1737209164

 k-point     1 :       0.0000    0.0000    0.0000
  band No.  band energies     occupation 
      1      -7.9432      2.00000
      2      -6.7021      2.00000
      3      -6.5113      2.00000
      4      -6.4500      2.00000
      5      -6.3706      2.00000
      6      -6.0215      2.00000
      7      -5.8597      2.00000
      8      -5.8178      2.00000
      9      -5.8129      2.00000
     10      -5.4920      2.00000
     11      -5.4837      2.00000
     12      -5.4616      2.00000
     13      -5.4012      2.00000
     14      -5.3179      2.00000
     15      -5.2672      2.00000
     16      -5.2418      2.00000
     17      -4.8908      2.00000
     18      -4.5609      2.00000
     19      -4.5057      2.00000
     20      -4.4969      2.00000
     21      -4.4941      2.00000
     22      -4.4048      2.00000
     23      -3.3018      0.00000
     24      -3.1779      0.00000
     25      -2.3224      0.00000
     26      -1.3575      0.00000
     27      -0.9730      0.00000
     28      -0.3349      0.00000
     29      -0.0866      0.00000
     30       0.2034      0.00000
     31       0.6961      0.00000
     32       1.8351      0.00000


--------------------------------------------------------------------------------------------------------


 soft charge-density along one line, spin component           1
         0         1         2         3         4         5         6         7         8         9
 total charge-density along one line
 
 pseudopotential strength for first ion, spin component:           1
 -9.610  -0.030  -0.035   0.010   0.001   0.987   0.021   0.023
 -0.030  -9.579   0.005   0.031  -0.007   0.021   0.967  -0.003
 -0.035   0.005  -9.580  -0.016  -0.009   0.023  -0.003   0.965
  0.010   0.031  -0.016  -9.563  -0.030  -0.006  -0.020   0.011
  0.001  -0.007  -0.009  -0.030  -9.615  -0.002   0.005   0.004
  0.987   0.021   0.023  -0.006  -0.002   6.598  -0.015  -0.016
  0.021   0.967  -0.003  -0.020   0.005  -0.015   6.613   0.002
  0.023  -0.003   0.965   0.011   0.004  -0.016   0.002   6.621
 -0.006  -0.020   0.011   0.955   0.020   0.003   0.014  -0.009
 -0.002   0.005   0.004   0.020   0.987  -0.000  -0.004  -0.004
 -0.007  -0.002  -0.007   0.010  -0.001   0.003   0.001   0.004
 -0.014  -0.003  -0.013   0.019  -0.002   0.005   0.001   0.008
 -0.031  -0.014  -0.017   0.001  -0.028   0.009   0.003   0.007
  0.001   0.028  -0.014  -0.029   0.001   0.000  -0.009   0.006
  0.029   0.001   0.017  -0.013  -0.028  -0.007   0.000  -0.006
 -0.045  -0.020  -0.026   0.001  -0.043   0.011   0.002   0.009
  0.001   0.042  -0.021  -0.043  -0.000   0.000  -0.011   0.008
  0.043   0.001   0.025  -0.020  -0.042  -0.009   0.000  -0.007
 total augmentation occupancy for first ion, spin component:           1
  1.933  -0.006  -0.007   0.003  -0.002  -0.034   0.004   0.007  -0.003  -0.000   0.222  -0.078   0.029  -0.009  -0.026  -0.013
 -0.006   1.942  -0.001   0.004   0.000   0.004  -0.039  -0.002  -0.007  -0.000   0.070  -0.022   0.008  -0.012  -0.010  -0.007
 -0.007  -0.001   1.943  -0.001  -0.005   0.007  -0.002  -0.041   0.003   0.004   0.090  -0.023   0.024   0.002  -0.014  -0.004
  0.003   0.004  -0.001   1.941  -0.009  -0.003  -0.007   0.002  -0.037   0.009  -0.121   0.027  -0.009   0.023   0.028   0.000
 -0.002   0.000  -0.005  -0.009   1.928  -0.000  -0.000   0.004   0.009  -0.024  -0.047   0.017   0.029   0.012   0.023  -0.006
 -0.034   0.004   0.007  -0.003  -0.000   0.007   0.002   0.002  -0.002  -0.000  -0.084   0.022   0.011  -0.004  -0.015  -0.001
  0.004  -0.039  -0.002  -0.007  -0.000   0.002   0.005  -0.000  -0.002  -0.000  -0.024   0.006   0.003  -0.010  -0.004  -0.000
  0.007  -0.002  -0.041   0.002   0.004   0.002  -0.000   0.004  -0.000   0.001  -0.066   0.017   0.010   0.002  -0.006  -0.001
 -0.003  -0.007   0.003  -0.037   0.009  -0.002  -0.002  -0.000   0.005   0.002   0.077  -0.019  -0.003   0.010   0.009   0.000
 -0.000  -0.000   0.004   0.009  -0.024  -0.000  -0.000   0.001   0.002   0.007  -0.012   0.004   0.014   0.004   0.011  -0.001
  0.222   0.070   0.090  -0.121  -0.047  -0.084  -0.024  -0.066   0.077  -0.012   4.444  -1.116  -0.331   0.154   0.336   0.033
 -0.078  -0.022  -0.023   0.027   0.017   0.022   0.006   0.017  -0.019   0.004  -1.116   0.281   0.085  -0.038  -0.084  -0.009
  0.029   0.008   0.024  -0.009   0.029   0.011   0.003   0.010  -0.003   0.014  -0.331   0.085   0.069  -0.001  -0.014  -0.007
 -0.009  -0.012   0.002   0.023   0.012  -0.004  -0.010   0.002   0.010   0.004   0.154  -0.038  -0.001   0.037   0.022   0.000
 -0.026  -0.010  -0.014   0.028   0.023  -0.015  -0.004  -0.006   0.009   0.011   0.336  -0.084  -0.014   0.022   0.063   0.002
 -0.013  -0.007  -0.004   0.000  -0.006  -0.001  -0.000  -0.001   0.000  -0.001   0.033  -0.009  -0.007   0.000   0.002   0.001
  0.000   0.009  -0.006  -0.011   0.001   0.000   0.001  -0.000  -0.001  -0.000  -0.016   0.004   0.001  -0.003  -0.002  -0.000
  0.009   0.001   0.007  -0.004  -0.010   0.001   0.000   0.001  -0.001  -0.001  -0.036   0.009   0.002  -0.002  -0.006  -0.000


------------------------ aborting loop because EDIFF is reached ----------------------------------------


    FORLOC:  cpu time      0.0171: real time      0.0171
    FORNL :  cpu time      0.0926: real time      0.0926
    STRESS:  cpu time      2.2925: real time      2.2950
    FORCOR:  cpu time      1.6676: real time      1.6691
    OFIELD:  cpu time      0.0003: real time      0.0003

  FORCE on cell =-STRESS in cart. coord.  units (eV):
  Direction    XX          YY          ZZ          XY          YZ          ZX
  --------------------------------------------------------------------------------------
  Alpha Z     1.46266     1.46266     1.46266
  Ewald     287.06714  1759.83681  -191.23434   271.07913   529.70973   619.08551
  Hartree  2017.06677  3267.88834  1660.46006   243.04096   443.38091   478.22630
  E(xc)    -189.79293  -188.43615  -190.14954    -0.13531     0.34639     0.46472
  Local   -2673.92968 -5390.63356 -1847.37638  -514.62514  -970.18055 -1088.69227
  n-local   -38.46848   -37.17287   -37.29355     0.60485     0.37935    -0.92151
  augment   232.19933   227.96201   236.26706    -0.34022    -1.84338    -4.31314
  Kinetic   357.43387   353.04094   361.52103     0.27372    -1.97847    -4.17822
  Fock        0.00000     0.00000     0.00000     0.00000     0.00000     0.00000
  -------------------------------------------------------------------------------------
  Total      -6.96131    -6.05182    -6.34302    -0.10201    -0.18602    -0.32860
  in kB      -1.39416    -1.21201    -1.27033    -0.02043    -0.03725    -0.06581
  external pressure =       -1.29 kB  Pullay stress =        0.00 kB


 VOLUME and BASIS-vectors are now :
 -----------------------------------------------------------------------------
  energy-cutoff  :      520.00
  volume of cell :     8000.00
      direct lattice vectors                 reciprocal lattice vectors
    20.000000000  0.000000000  0.000000000     0.050000000  0.000000000  0.000000000
     0.000000000 20.000000000  0.000000000     0.000000000  0.050000000  0.000000000
     0.000000000  0.000000000 20.000000000     0.000000000  0.000000000  0.050000000

  length of vectors
    20.000000000 20.000000000 20.000000000     0.050000000  0.050000000  0.050000000


 FORCES acting on ions:
    Electron-Ion                     Ewald-Force                    Non-Local-Force
 -----------------------------------------------------------------------------------------------
   0.330E+03 -.526E+03 0.121E+03   -.320E+03 0.517E+03 -.117E+03   -.783E+01 0.799E+01 -.311E+01
   0.138E+03 0.474E+03 0.159E+03   -.135E+03 -.463E+03 -.156E+03   -.414E+01 -.843E+01 -.315E+01
   0.513E+02 0.177E+03 0.594E+02   -.521E+02 -.180E+03 -.602E+02   -.675E-01 0.271E+01 0.267E+01
   -.519E+03 -.125E+03 -.340E+03   0.507E+03 0.126E+03 0.333E+03   0.106E+02 -.119E+01 0.844E+01
 -----------------------------------------------------------------------------------------------
   0.436E+00 -.903E+00 -.197E+01   0.000E+00 -.995E-13 -.568E-13   -.145E+01 0.108E+01 0.486E+01
 
 
 POSITION                                       TOTAL-FORCE (eV/Angst)
 -----------------------------------------------------------------------------------
     19.51239      1.89559     19.99473         1.543696     -0.581281     -0.313298
     19.27778     17.51376     19.16666        -0.632900      1.113984     -0.765095
     19.87181     19.55824     19.85192        -0.133875     -0.409987      0.685119
      1.33802      1.03241      0.98669        -0.776921     -0.122716      0.393274
 -----------------------------------------------------------------------------------
    total drift:                               -1.008859      0.177560      2.885686


--------------------------------------------------------------------------------------------------------



  FREE ENERGIE OF THE ION-ELECTRON SYSTEM (eV)
  ---------------------------------------------------
  free  energy   TOTEN  =       -30.17383332 eV

  energy  without entropy=      -30.17383332  energy(sigma->0) =      -30.17383332
 


--------------------------------------------------------------------------------------------------------


    POTLOK:  cpu time      6.2471: real time      6.2523


--------------------------------------------------------------------------------------------------------


     LOOP+:  cpu time   3768.7375: real time   3773.1346
    4ORBIT:  cpu time      0.0001: real time      0.0001

 total amount of memory used by VASP MPI-rank0    70683. kBytes
=======================================================================

   base      :      30000. kBytes
   nonlr-proj:        884. kBytes
   fftplans  :      12137. kBytes
   grid      :      26351. kBytes
   one-center:         15. kBytes
   wavefun   :       1296. kBytes
 
  
  
 General timing and accounting informations for this job:
 ========================================================
  
                  Total CPU time used (sec):     3779.919
                            User time (sec):     3772.790
                          System time (sec):        7.128
                         Elapsed time (sec):     3785.317
  
                   Maximum memory used (kb):      752220.
                   Average memory used (kb):          N/A
  
                          Minor page faults:       499784
                          Major page faults:            0
                 Voluntary context switches:        27995
